<?xml version="1.0" encoding="ISO-8859-1"?>
<modeling>
 <generator>
  <i name="program" type="string">vasp </i>
  <i name="version" type="string">6.1.0  </i>
  <i name="subversion" type="string">28Jan20 (build Jun 21 2024 05:31:27) complex                          parallel </i>
  <i name="platform" type="string">LinuxNV </i>
  <i name="date" type="string">2024 07 05 </i>
  <i name="time" type="string">11:50:40 </i>
 </generator>
 <incar>
  <i type="string" name="PREC">  Accurate</i>
  <i type="string" name="ALGO">  Normal</i>
  <i type="int" name="NSIM">   512</i>
  <i type="int" name="NELM">   100</i>
  <i type="int" name="IBRION">     2</i>
  <i name="EDIFF">      0.00000010</i>
  <i name="EDIFFG">     -0.00500000</i>
  <i type="int" name="NSW">    20</i>
  <i type="int" name="ISIF">     3</i>
  <i type="int" name="ISYM">     0</i>
  <i name="ENCUT">    400.00000000</i>
  <v name="MAGMOM">      0.60000000      0.60000000</v>
  <i type="logical" name="LREAL"> F  </i>
  <i type="int" name="ISMEAR">     0</i>
  <i name="SIGMA">      0.10000000</i>
  <i type="int" name="LMAXMIX">     4</i>
  <i type="logical" name="LWAVE"> F  </i>
  <i type="logical" name="LCHARG"> F  </i>
  <i type="logical" name="LVTOT"> F  </i>
  <i type="logical" name="LVHAR"> T  </i>
  <i type="logical" name="LASPH"> T  </i>
  <i type="int" name="KPAR">     8</i>
  <i type="logical" name="LAECHG"> F  </i>
  <i type="string" name="ALGO">  Normal</i>
  <i type="int" name="NELM">   100</i>
  <i name="HFSCREEN">      0.20000000</i>
  <i type="logical" name="LHFCALC"> T  </i>
  <i type="string" name="GGA">  Pe</i>
  <i type="int" name="ISIF">     3</i>
  <i type="int" name="ISYM">     0</i>
  <i name="HFSCREEN">      0.20000000</i>
  <i name="AEXX">      0.28800000</i>
  <i type="string" name="PRECFOCK"> Fast</i>
  <i name="EDIFF">      0.00000010</i>
  <i type="logical" name="LASPH"> T  </i>
 </incar>
 <structure name="primitive_cell" >
  <crystal>
   <varray name="basis" >
    <v>       0.00000000       2.87509105       2.87509105 </v>
    <v>       2.87509105       0.00000000       2.87509105 </v>
    <v>       2.87509105       2.87509105       0.00000000 </v>
   </varray>
   <i name="volume">     47.53185938 </i>
   <varray name="rec_basis" >
    <v>      -0.17390754       0.17390754       0.17390754 </v>
    <v>       0.17390754      -0.17390754       0.17390754 </v>
    <v>       0.17390754       0.17390754      -0.17390754 </v>
   </varray>
  </crystal>
  <varray name="positions" >
   <v>       0.00000000       0.00000000       0.00000000 </v>
   <v>       0.25000000       0.25000000       0.25000000 </v>
  </varray>
 </structure>
 <varray name="primitive_index" >
  <v type="int" >        1 </v>
  <v type="int" >        2 </v>
 </varray>
 <kpoints>
  <generation param="Gamma">
   <v type="int" name="divisions">       8        8        8 </v>
   <v name="usershift">      0.00000000       0.00000000       0.00000000 </v>
   <v name="genvec1">      0.12500000       0.00000000       0.00000000 </v>
   <v name="genvec2">      0.00000000       0.12500000      -0.00000000 </v>
   <v name="genvec3">     -0.00000000      -0.00000000       0.12500000 </v>
   <v name="shift">      0.00000000       0.00000000       0.00000000 </v>
  </generation>
  <varray name="kpointlist" >
   <v>       0.00000000       0.00000000       0.00000000 </v>
   <v>       0.12500000       0.00000000       0.00000000 </v>
   <v>       0.00000000       0.12500000       0.00000000 </v>
   <v>       0.00000000       0.00000000       0.12500000 </v>
   <v>       0.12500000       0.12500000       0.12500000 </v>
   <v>       0.25000000       0.00000000       0.00000000 </v>
   <v>       0.00000000       0.25000000       0.00000000 </v>
   <v>       0.00000000       0.00000000       0.25000000 </v>
   <v>       0.25000000       0.25000000       0.25000000 </v>
   <v>       0.37500000       0.00000000       0.00000000 </v>
   <v>       0.00000000       0.37500000       0.00000000 </v>
   <v>       0.00000000       0.00000000       0.37500000 </v>
   <v>       0.37500000       0.37500000       0.37500000 </v>
   <v>       0.50000000       0.00000000       0.00000000 </v>
   <v>       0.00000000       0.50000000       0.00000000 </v>
   <v>       0.00000000       0.00000000       0.50000000 </v>
   <v>       0.50000000       0.50000000       0.50000000 </v>
   <v>       0.12500000       0.12500000       0.00000000 </v>
   <v>       0.00000000       0.12500000       0.12500000 </v>
   <v>       0.12500000       0.00000000       0.12500000 </v>
   <v>       0.25000000       0.12500000       0.00000000 </v>
   <v>       0.00000000       0.25000000       0.12500000 </v>
   <v>       0.12500000       0.00000000       0.25000000 </v>
   <v>       0.12500000       0.12500000      -0.12500000 </v>
   <v>       0.25000000       0.12500000       0.25000000 </v>
   <v>       0.12500000       0.25000000       0.00000000 </v>
   <v>       0.12500000      -0.12500000      -0.12500000 </v>
   <v>       0.25000000       0.25000000       0.12500000 </v>
   <v>       0.00000000       0.12500000       0.25000000 </v>
   <v>      -0.12500000       0.12500000      -0.12500000 </v>
   <v>       0.12500000       0.25000000       0.25000000 </v>
   <v>       0.25000000       0.00000000       0.12500000 </v>
   <v>       0.37500000       0.12500000       0.00000000 </v>
   <v>       0.00000000       0.37500000       0.12500000 </v>
   <v>       0.12500000       0.00000000       0.37500000 </v>
   <v>       0.12500000       0.12500000      -0.25000000 </v>
   <v>       0.37500000       0.25000000       0.37500000 </v>
   <v>       0.12500000       0.37500000       0.00000000 </v>
   <v>       0.25000000      -0.12500000      -0.12500000 </v>
   <v>       0.37500000       0.37500000       0.25000000 </v>
   <v>       0.00000000       0.12500000       0.37500000 </v>
   <v>      -0.12500000       0.25000000      -0.12500000 </v>
   <v>       0.25000000       0.37500000       0.37500000 </v>
   <v>       0.37500000       0.00000000       0.12500000 </v>
   <v>       0.50000000       0.12500000       0.00000000 </v>
   <v>       0.00000000       0.50000000       0.12500000 </v>
   <v>       0.12500000       0.00000000       0.50000000 </v>
   <v>       0.12500000       0.12500000      -0.37500000 </v>
   <v>       0.50000000       0.37500000       0.50000000 </v>
   <v>       0.12500000       0.50000000       0.00000000 </v>
   <v>       0.37500000      -0.12500000      -0.12500000 </v>
   <v>       0.50000000       0.50000000       0.37500000 </v>
   <v>       0.00000000       0.12500000       0.50000000 </v>
   <v>      -0.12500000       0.37500000      -0.12500000 </v>
   <v>       0.37500000       0.50000000       0.50000000 </v>
   <v>       0.50000000       0.00000000       0.12500000 </v>
   <v>      -0.37500000       0.12500000       0.00000000 </v>
   <v>       0.00000000      -0.37500000       0.12500000 </v>
   <v>       0.12500000       0.00000000      -0.37500000 </v>
   <v>       0.12500000       0.12500000       0.50000000 </v>
   <v>      -0.37500000       0.50000000      -0.37500000 </v>
   <v>       0.12500000      -0.37500000       0.00000000 </v>
   <v>       0.50000000      -0.12500000      -0.12500000 </v>
   <v>      -0.37500000      -0.37500000       0.50000000 </v>
   <v>       0.00000000       0.12500000      -0.37500000 </v>
   <v>      -0.12500000       0.50000000      -0.12500000 </v>
   <v>       0.50000000      -0.37500000      -0.37500000 </v>
   <v>      -0.37500000       0.00000000       0.12500000 </v>
   <v>      -0.25000000       0.12500000       0.00000000 </v>
   <v>       0.00000000      -0.25000000       0.12500000 </v>
   <v>       0.12500000       0.00000000      -0.25000000 </v>
   <v>       0.12500000       0.12500000       0.37500000 </v>
   <v>      -0.25000000      -0.37500000      -0.25000000 </v>
   <v>       0.12500000      -0.25000000       0.00000000 </v>
   <v>      -0.37500000      -0.12500000      -0.12500000 </v>
   <v>      -0.25000000      -0.25000000      -0.37500000 </v>
   <v>       0.00000000       0.12500000      -0.25000000 </v>
   <v>      -0.12500000      -0.37500000      -0.12500000 </v>
   <v>      -0.37500000      -0.25000000      -0.25000000 </v>
   <v>      -0.25000000       0.00000000       0.12500000 </v>
   <v>      -0.12500000       0.12500000       0.00000000 </v>
   <v>       0.00000000      -0.12500000       0.12500000 </v>
   <v>       0.12500000       0.00000000      -0.12500000 </v>
   <v>       0.12500000       0.12500000       0.25000000 </v>
   <v>      -0.12500000      -0.25000000      -0.12500000 </v>
   <v>      -0.25000000      -0.12500000      -0.12500000 </v>
   <v>       0.25000000       0.25000000       0.00000000 </v>
   <v>       0.00000000       0.25000000       0.25000000 </v>
   <v>       0.25000000       0.00000000       0.25000000 </v>
   <v>       0.37500000       0.25000000       0.00000000 </v>
   <v>       0.00000000       0.37500000       0.25000000 </v>
   <v>       0.25000000       0.00000000       0.37500000 </v>
   <v>       0.25000000       0.25000000      -0.12500000 </v>
   <v>       0.37500000       0.12500000       0.37500000 </v>
   <v>       0.25000000       0.37500000       0.00000000 </v>
   <v>       0.12500000      -0.25000000      -0.25000000 </v>
   <v>       0.37500000       0.37500000       0.12500000 </v>
   <v>       0.00000000       0.25000000       0.37500000 </v>
   <v>      -0.25000000       0.12500000      -0.25000000 </v>
   <v>       0.12500000       0.37500000       0.37500000 </v>
   <v>       0.37500000       0.00000000       0.25000000 </v>
   <v>       0.50000000       0.25000000       0.00000000 </v>
   <v>       0.00000000       0.50000000       0.25000000 </v>
   <v>       0.25000000       0.00000000       0.50000000 </v>
   <v>       0.25000000       0.25000000      -0.25000000 </v>
   <v>       0.50000000       0.25000000       0.50000000 </v>
   <v>       0.25000000       0.50000000       0.00000000 </v>
   <v>       0.25000000      -0.25000000      -0.25000000 </v>
   <v>       0.50000000       0.50000000       0.25000000 </v>
   <v>       0.00000000       0.25000000       0.50000000 </v>
   <v>      -0.25000000       0.25000000      -0.25000000 </v>
   <v>       0.25000000       0.50000000       0.50000000 </v>
   <v>       0.50000000       0.00000000       0.25000000 </v>
   <v>      -0.37500000       0.25000000       0.00000000 </v>
   <v>       0.00000000      -0.37500000       0.25000000 </v>
   <v>       0.25000000       0.00000000      -0.37500000 </v>
   <v>       0.25000000       0.25000000      -0.37500000 </v>
   <v>      -0.37500000       0.37500000      -0.37500000 </v>
   <v>       0.25000000      -0.37500000       0.00000000 </v>
   <v>       0.37500000      -0.25000000      -0.25000000 </v>
   <v>      -0.37500000      -0.37500000       0.37500000 </v>
   <v>       0.00000000       0.25000000      -0.37500000 </v>
   <v>      -0.25000000       0.37500000      -0.25000000 </v>
   <v>       0.37500000      -0.37500000      -0.37500000 </v>
   <v>      -0.37500000       0.00000000       0.25000000 </v>
   <v>      -0.25000000       0.25000000       0.00000000 </v>
   <v>       0.00000000      -0.25000000       0.25000000 </v>
   <v>       0.25000000       0.00000000      -0.25000000 </v>
   <v>       0.25000000       0.25000000       0.50000000 </v>
   <v>      -0.25000000       0.50000000      -0.25000000 </v>
   <v>       0.50000000      -0.25000000      -0.25000000 </v>
   <v>       0.37500000       0.37500000       0.00000000 </v>
   <v>       0.00000000       0.37500000       0.37500000 </v>
   <v>       0.37500000       0.00000000       0.37500000 </v>
   <v>       0.50000000       0.37500000       0.00000000 </v>
   <v>       0.00000000       0.50000000       0.37500000 </v>
   <v>       0.37500000       0.00000000       0.50000000 </v>
   <v>       0.37500000       0.37500000      -0.12500000 </v>
   <v>       0.50000000       0.12500000       0.50000000 </v>
   <v>       0.37500000       0.50000000       0.00000000 </v>
   <v>       0.12500000      -0.37500000      -0.37500000 </v>
   <v>       0.50000000       0.50000000       0.12500000 </v>
   <v>       0.00000000       0.37500000       0.50000000 </v>
   <v>      -0.37500000       0.12500000      -0.37500000 </v>
   <v>       0.12500000       0.50000000       0.50000000 </v>
   <v>       0.50000000       0.00000000       0.37500000 </v>
   <v>      -0.37500000       0.37500000       0.00000000 </v>
   <v>       0.00000000      -0.37500000       0.37500000 </v>
   <v>       0.37500000       0.00000000      -0.37500000 </v>
   <v>       0.37500000       0.37500000      -0.25000000 </v>
   <v>      -0.37500000       0.25000000      -0.37500000 </v>
   <v>       0.25000000      -0.37500000      -0.37500000 </v>
   <v>       0.50000000       0.50000000       0.00000000 </v>
   <v>       0.00000000       0.50000000       0.50000000 </v>
   <v>       0.50000000       0.00000000       0.50000000 </v>
   <v>       0.37500000       0.25000000       0.12500000 </v>
   <v>       0.12500000       0.37500000       0.25000000 </v>
   <v>       0.25000000       0.12500000       0.37500000 </v>
   <v>       0.25000000       0.12500000      -0.12500000 </v>
   <v>       0.37500000       0.12500000       0.25000000 </v>
   <v>       0.12500000      -0.25000000      -0.12500000 </v>
   <v>       0.12500000       0.25000000      -0.12500000 </v>
   <v>       0.12500000      -0.12500000      -0.25000000 </v>
   <v>       0.25000000       0.37500000       0.12500000 </v>
   <v>      -0.12500000       0.12500000      -0.25000000 </v>
   <v>      -0.25000000       0.12500000      -0.12500000 </v>
   <v>       0.12500000       0.25000000       0.37500000 </v>
   <v>       0.50000000       0.25000000       0.12500000 </v>
   <v>       0.12500000       0.50000000       0.25000000 </v>
   <v>       0.25000000       0.12500000       0.50000000 </v>
   <v>       0.25000000       0.12500000      -0.25000000 </v>
   <v>       0.50000000       0.25000000       0.37500000 </v>
   <v>       0.12500000      -0.37500000      -0.12500000 </v>
   <v>       0.12500000       0.37500000      -0.12500000 </v>
   <v>       0.25000000      -0.12500000      -0.25000000 </v>
   <v>      -0.37500000      -0.25000000       0.50000000 </v>
   <v>       0.37500000       0.50000000       0.25000000 </v>
   <v>      -0.12500000       0.12500000      -0.37500000 </v>
   <v>      -0.25000000       0.25000000       0.12500000 </v>
   <v>      -0.12500000       0.12500000       0.37500000 </v>
   <v>      -0.25000000       0.25000000      -0.12500000 </v>
   <v>       0.50000000      -0.37500000      -0.25000000 </v>
   <v>       0.25000000       0.37500000       0.50000000 </v>
   <v>      -0.37500000      -0.12500000       0.12500000 </v>
   <v>       0.12500000      -0.25000000       0.25000000 </v>
   <v>       0.37500000      -0.12500000       0.12500000 </v>
   <v>      -0.12500000      -0.25000000       0.25000000 </v>
   <v>      -0.25000000       0.50000000      -0.37500000 </v>
   <v>       0.50000000      -0.12500000      -0.25000000 </v>
   <v>      -0.25000000       0.50000000      -0.12500000 </v>
   <v>      -0.12500000      -0.25000000       0.50000000 </v>
   <v>      -0.37500000       0.25000000       0.12500000 </v>
   <v>       0.12500000      -0.37500000       0.25000000 </v>
   <v>       0.25000000       0.12500000      -0.37500000 </v>
   <v>      -0.37500000       0.37500000       0.50000000 </v>
   <v>       0.12500000       0.50000000      -0.12500000 </v>
   <v>       0.37500000      -0.12500000      -0.25000000 </v>
   <v>       0.50000000      -0.37500000       0.37500000 </v>
   <v>      -0.12500000       0.12500000       0.50000000 </v>
   <v>      -0.25000000       0.37500000      -0.12500000 </v>
   <v>       0.37500000       0.50000000      -0.37500000 </v>
   <v>       0.50000000      -0.12500000       0.12500000 </v>
   <v>      -0.12500000      -0.25000000       0.37500000 </v>
   <v>       0.50000000       0.37500000       0.12500000 </v>
   <v>       0.12500000       0.50000000       0.37500000 </v>
   <v>       0.37500000       0.12500000       0.50000000 </v>
   <v>       0.37500000       0.25000000      -0.12500000 </v>
   <v>       0.50000000       0.12500000       0.37500000 </v>
   <v>       0.12500000      -0.37500000      -0.25000000 </v>
   <v>       0.25000000       0.37500000      -0.12500000 </v>
   <v>       0.12500000      -0.25000000      -0.37500000 </v>
   <v>       0.37500000       0.50000000       0.12500000 </v>
   <v>      -0.25000000       0.12500000      -0.37500000 </v>
   <v>      -0.37500000       0.12500000      -0.25000000 </v>
   <v>       0.12500000       0.37500000       0.50000000 </v>
   <v>      -0.37500000       0.37500000       0.12500000 </v>
   <v>       0.12500000      -0.37500000       0.37500000 </v>
   <v>       0.37500000       0.12500000      -0.37500000 </v>
   <v>       0.37500000       0.25000000      -0.25000000 </v>
   <v>      -0.37500000       0.25000000       0.50000000 </v>
   <v>       0.12500000       0.50000000      -0.25000000 </v>
   <v>       0.25000000       0.50000000      -0.12500000 </v>
   <v>       0.25000000      -0.25000000      -0.37500000 </v>
   <v>       0.50000000      -0.25000000       0.37500000 </v>
   <v>       0.50000000      -0.37500000       0.25000000 </v>
   <v>      -0.25000000       0.12500000       0.50000000 </v>
   <v>      -0.25000000       0.37500000       0.25000000 </v>
   <v>      -0.12500000       0.25000000       0.50000000 </v>
   <v>      -0.37500000       0.25000000      -0.25000000 </v>
   <v>       0.37500000       0.50000000      -0.25000000 </v>
   <v>       0.25000000       0.50000000      -0.37500000 </v>
   <v>       0.50000000      -0.25000000       0.12500000 </v>
   <v>       0.25000000      -0.25000000       0.37500000 </v>
   <v>       0.50000000      -0.12500000       0.25000000 </v>
   <v>      -0.25000000      -0.37500000       0.25000000 </v>
   <v>      -0.25000000       0.37500000       0.50000000 </v>
   <v>       0.37500000      -0.12500000      -0.37500000 </v>
   <v>      -0.37500000       0.37500000      -0.12500000 </v>
   <v>      -0.12500000      -0.37500000       0.37500000 </v>
   <v>      -0.25000000       0.37500000       0.12500000 </v>
   <v>       0.12500000      -0.25000000       0.37500000 </v>
   <v>       0.37500000       0.12500000      -0.25000000 </v>
   <v>       0.37500000       0.25000000      -0.37500000 </v>
   <v>      -0.25000000       0.37500000      -0.37500000 </v>
   <v>       0.12500000       0.37500000      -0.25000000 </v>
   <v>       0.37500000      -0.25000000      -0.37500000 </v>
   <v>       0.37500000      -0.37500000       0.25000000 </v>
   <v>      -0.25000000       0.12500000       0.37500000 </v>
   <v>      -0.37500000       0.37500000       0.25000000 </v>
   <v>       0.25000000       0.37500000      -0.37500000 </v>
   <v>       0.37500000      -0.25000000       0.12500000 </v>
   <v>      -0.37500000       0.50000000       0.12500000 </v>
   <v>       0.12500000      -0.37500000       0.50000000 </v>
   <v>       0.50000000       0.12500000      -0.37500000 </v>
   <v>       0.50000000       0.37500000      -0.12500000 </v>
   <v>      -0.37500000       0.12500000       0.50000000 </v>
   <v>       0.12500000       0.50000000      -0.37500000 </v>
   <v>      -0.25000000       0.50000000       0.25000000 </v>
   <v>       0.25000000      -0.25000000       0.50000000 </v>
   <v>       0.50000000       0.25000000      -0.25000000 </v>
  </varray>
  <varray name="weights" >
   <v>       0.00195313 </v>
   <v>       0.00390625 </v>
   <v>       0.00390625 </v>
   <v>       0.00390625 </v>
   <v>       0.00390625 </v>
   <v>       0.00390625 </v>
   <v>       0.00390625 </v>
   <v>       0.00390625 </v>
   <v>       0.00390625 </v>
   <v>       0.00390625 </v>
   <v>       0.00390625 </v>
   <v>       0.00390625 </v>
   <v>       0.00390625 </v>
   <v>       0.00195313 </v>
   <v>       0.00195313 </v>
   <v>       0.00195313 </v>
   <v>       0.00195313 </v>
   <v>       0.00390625 </v>
   <v>       0.00390625 </v>
   <v>       0.00390625 </v>
   <v>       0.00390625 </v>
   <v>       0.00390625 </v>
   <v>       0.00390625 </v>
   <v>       0.00390625 </v>
   <v>       0.00390625 </v>
   <v>       0.00390625 </v>
   <v>       0.00390625 </v>
   <v>       0.00390625 </v>
   <v>       0.00390625 </v>
   <v>       0.00390625 </v>
   <v>       0.00390625 </v>
   <v>       0.00390625 </v>
   <v>       0.00390625 </v>
   <v>       0.00390625 </v>
   <v>       0.00390625 </v>
   <v>       0.00390625 </v>
   <v>       0.00390625 </v>
   <v>       0.00390625 </v>
   <v>       0.00390625 </v>
   <v>       0.00390625 </v>
   <v>       0.00390625 </v>
   <v>       0.00390625 </v>
   <v>       0.00390625 </v>
   <v>       0.00390625 </v>
   <v>       0.00390625 </v>
   <v>       0.00390625 </v>
   <v>       0.00390625 </v>
   <v>       0.00390625 </v>
   <v>       0.00390625 </v>
   <v>       0.00390625 </v>
   <v>       0.00390625 </v>
   <v>       0.00390625 </v>
   <v>       0.00390625 </v>
   <v>       0.00390625 </v>
   <v>       0.00390625 </v>
   <v>       0.00390625 </v>
   <v>       0.00390625 </v>
   <v>       0.00390625 </v>
   <v>       0.00390625 </v>
   <v>       0.00390625 </v>
   <v>       0.00390625 </v>
   <v>       0.00390625 </v>
   <v>       0.00390625 </v>
   <v>       0.00390625 </v>
   <v>       0.00390625 </v>
   <v>       0.00390625 </v>
   <v>       0.00390625 </v>
   <v>       0.00390625 </v>
   <v>       0.00390625 </v>
   <v>       0.00390625 </v>
   <v>       0.00390625 </v>
   <v>       0.00390625 </v>
   <v>       0.00390625 </v>
   <v>       0.00390625 </v>
   <v>       0.00390625 </v>
   <v>       0.00390625 </v>
   <v>       0.00390625 </v>
   <v>       0.00390625 </v>
   <v>       0.00390625 </v>
   <v>       0.00390625 </v>
   <v>       0.00390625 </v>
   <v>       0.00390625 </v>
   <v>       0.00390625 </v>
   <v>       0.00390625 </v>
   <v>       0.00390625 </v>
   <v>       0.00390625 </v>
   <v>       0.00390625 </v>
   <v>       0.00390625 </v>
   <v>       0.00390625 </v>
   <v>       0.00390625 </v>
   <v>       0.00390625 </v>
   <v>       0.00390625 </v>
   <v>       0.00390625 </v>
   <v>       0.00390625 </v>
   <v>       0.00390625 </v>
   <v>       0.00390625 </v>
   <v>       0.00390625 </v>
   <v>       0.00390625 </v>
   <v>       0.00390625 </v>
   <v>       0.00390625 </v>
   <v>       0.00390625 </v>
   <v>       0.00390625 </v>
   <v>       0.00390625 </v>
   <v>       0.00390625 </v>
   <v>       0.00390625 </v>
   <v>       0.00390625 </v>
   <v>       0.00390625 </v>
   <v>       0.00390625 </v>
   <v>       0.00390625 </v>
   <v>       0.00390625 </v>
   <v>       0.00390625 </v>
   <v>       0.00390625 </v>
   <v>       0.00390625 </v>
   <v>       0.00390625 </v>
   <v>       0.00390625 </v>
   <v>       0.00390625 </v>
   <v>       0.00390625 </v>
   <v>       0.00390625 </v>
   <v>       0.00390625 </v>
   <v>       0.00390625 </v>
   <v>       0.00390625 </v>
   <v>       0.00390625 </v>
   <v>       0.00390625 </v>
   <v>       0.00390625 </v>
   <v>       0.00390625 </v>
   <v>       0.00390625 </v>
   <v>       0.00390625 </v>
   <v>       0.00390625 </v>
   <v>       0.00390625 </v>
   <v>       0.00390625 </v>
   <v>       0.00390625 </v>
   <v>       0.00390625 </v>
   <v>       0.00390625 </v>
   <v>       0.00390625 </v>
   <v>       0.00390625 </v>
   <v>       0.00390625 </v>
   <v>       0.00390625 </v>
   <v>       0.00390625 </v>
   <v>       0.00390625 </v>
   <v>       0.00390625 </v>
   <v>       0.00390625 </v>
   <v>       0.00390625 </v>
   <v>       0.00390625 </v>
   <v>       0.00390625 </v>
   <v>       0.00390625 </v>
   <v>       0.00390625 </v>
   <v>       0.00390625 </v>
   <v>       0.00390625 </v>
   <v>       0.00390625 </v>
   <v>       0.00390625 </v>
   <v>       0.00390625 </v>
   <v>       0.00390625 </v>
   <v>       0.00195313 </v>
   <v>       0.00195313 </v>
   <v>       0.00195313 </v>
   <v>       0.00390625 </v>
   <v>       0.00390625 </v>
   <v>       0.00390625 </v>
   <v>       0.00390625 </v>
   <v>       0.00390625 </v>
   <v>       0.00390625 </v>
   <v>       0.00390625 </v>
   <v>       0.00390625 </v>
   <v>       0.00390625 </v>
   <v>       0.00390625 </v>
   <v>       0.00390625 </v>
   <v>       0.00390625 </v>
   <v>       0.00390625 </v>
   <v>       0.00390625 </v>
   <v>       0.00390625 </v>
   <v>       0.00390625 </v>
   <v>       0.00390625 </v>
   <v>       0.00390625 </v>
   <v>       0.00390625 </v>
   <v>       0.00390625 </v>
   <v>       0.00390625 </v>
   <v>       0.00390625 </v>
   <v>       0.00390625 </v>
   <v>       0.00390625 </v>
   <v>       0.00390625 </v>
   <v>       0.00390625 </v>
   <v>       0.00390625 </v>
   <v>       0.00390625 </v>
   <v>       0.00390625 </v>
   <v>       0.00390625 </v>
   <v>       0.00390625 </v>
   <v>       0.00390625 </v>
   <v>       0.00390625 </v>
   <v>       0.00390625 </v>
   <v>       0.00390625 </v>
   <v>       0.00390625 </v>
   <v>       0.00390625 </v>
   <v>       0.00390625 </v>
   <v>       0.00390625 </v>
   <v>       0.00390625 </v>
   <v>       0.00390625 </v>
   <v>       0.00390625 </v>
   <v>       0.00390625 </v>
   <v>       0.00390625 </v>
   <v>       0.00390625 </v>
   <v>       0.00390625 </v>
   <v>       0.00390625 </v>
   <v>       0.00390625 </v>
   <v>       0.00390625 </v>
   <v>       0.00390625 </v>
   <v>       0.00390625 </v>
   <v>       0.00390625 </v>
   <v>       0.00390625 </v>
   <v>       0.00390625 </v>
   <v>       0.00390625 </v>
   <v>       0.00390625 </v>
   <v>       0.00390625 </v>
   <v>       0.00390625 </v>
   <v>       0.00390625 </v>
   <v>       0.00390625 </v>
   <v>       0.00390625 </v>
   <v>       0.00390625 </v>
   <v>       0.00390625 </v>
   <v>       0.00390625 </v>
   <v>       0.00390625 </v>
   <v>       0.00390625 </v>
   <v>       0.00390625 </v>
   <v>       0.00390625 </v>
   <v>       0.00390625 </v>
   <v>       0.00390625 </v>
   <v>       0.00390625 </v>
   <v>       0.00390625 </v>
   <v>       0.00390625 </v>
   <v>       0.00390625 </v>
   <v>       0.00390625 </v>
   <v>       0.00390625 </v>
   <v>       0.00390625 </v>
   <v>       0.00390625 </v>
   <v>       0.00390625 </v>
   <v>       0.00390625 </v>
   <v>       0.00390625 </v>
   <v>       0.00390625 </v>
   <v>       0.00390625 </v>
   <v>       0.00390625 </v>
   <v>       0.00390625 </v>
   <v>       0.00390625 </v>
   <v>       0.00390625 </v>
   <v>       0.00390625 </v>
   <v>       0.00390625 </v>
   <v>       0.00390625 </v>
   <v>       0.00390625 </v>
   <v>       0.00390625 </v>
   <v>       0.00390625 </v>
   <v>       0.00390625 </v>
   <v>       0.00390625 </v>
   <v>       0.00390625 </v>
   <v>       0.00390625 </v>
   <v>       0.00390625 </v>
   <v>       0.00390625 </v>
   <v>       0.00390625 </v>
   <v>       0.00390625 </v>
   <v>       0.00390625 </v>
   <v>       0.00390625 </v>
   <v>       0.00390625 </v>
   <v>       0.00390625 </v>
  </varray>
 </kpoints>
 <parameters>
  <separator name="general" >
   <i type="string" name="SYSTEM">unknown system</i>
   <i type="logical" name="LCOMPAT"> F  </i>
  </separator>
  <separator name="electronic" >
   <i type="string" name="PREC">accura</i>
   <i name="ENMAX">    400.00000000</i>
   <i name="ENAUG">    490.69000000</i>
   <i name="EDIFF">      0.00000010</i>
   <i type="int" name="IALGO">    38</i>
   <i type="int" name="IWAVPR">    11</i>
   <i type="int" name="NBANDS">    13</i>
   <i type="int" name="NBANDSLOW">    -1</i>
   <i type="int" name="NBANDSHIGH">    -1</i>
   <i name="NELECT">     18.00000000</i>
   <i type="int" name="TURBO">     0</i>
   <i type="int" name="IRESTART">     0</i>
   <i type="int" name="NREBOOT">     0</i>
   <i type="int" name="NMIN">     0</i>
   <i name="EREF">      0.00000000</i>
   <separator name="electronic smearing" >
    <i type="int" name="ISMEAR">     0</i>
    <i name="SIGMA">      0.10000000</i>
    <i name="KSPACING">      0.50000000</i>
    <i type="logical" name="KGAMMA"> T  </i>
    <i type="logical" name="KBLOWUP"> T  </i>
   </separator>
   <separator name="electronic projectors" >
    <i type="logical" name="LREAL"> F  </i>
    <v name="ROPT">      0.00000000      0.00000000</v>
    <i type="int" name="LMAXPAW">  -100</i>
    <i type="int" name="LMAXMIX">     4</i>
    <i type="logical" name="NLSPLINE"> F  </i>
   </separator>
   <separator name="electronic startup" >
    <i type="int" name="ISTART">     0</i>
    <i type="int" name="ICHARG">     2</i>
    <i type="int" name="INIWAV">     1</i>
   </separator>
   <separator name="electronic spin" >
    <i type="int" name="ISPIN">     1</i>
    <i type="logical" name="LNONCOLLINEAR"> F  </i>
    <v name="MAGMOM">      0.60000000      0.60000000</v>
    <i name="NUPDOWN">     -1.00000000</i>
    <i type="logical" name="LSORBIT"> F  </i>
    <v name="SAXIS">      0.00000000      0.00000000      1.00000000</v>
    <i type="logical" name="LSPIRAL"> F  </i>
    <v name="QSPIRAL">      0.00000000      0.00000000      0.00000000</v>
    <i type="logical" name="LZEROZ"> F  </i>
   </separator>
   <separator name="electronic exchange-correlation" >
    <i type="logical" name="LASPH"> T  </i>
    <i type="logical" name="LMETAGGA"> F  </i>
   </separator>
   <separator name="electronic convergence" >
    <i type="int" name="NELM">   100</i>
    <i type="int" name="NELMDL">    -5</i>
    <i type="int" name="NELMIN">     2</i>
    <i name="ENINI">    400.00000000</i>
    <separator name="electronic convergence detail" >
     <i type="logical" name="LDIAG"> T  </i>
     <i type="logical" name="LSUBROT"> F  </i>
     <i name="WEIMIN">      0.00100000</i>
     <i name="EBREAK">      0.00000000</i>
     <i name="DEPER">      0.30000000</i>
     <i type="int" name="NRMM">     4</i>
     <i name="TIME">      0.40000000</i>
    </separator>
   </separator>
   <separator name="electronic mixer" >
    <i name="AMIX">      0.40000000</i>
    <i name="BMIX">      1.00000000</i>
    <i name="AMIN">      0.10000000</i>
    <i name="AMIX_MAG">      1.60000000</i>
    <i name="BMIX_MAG">      1.00000000</i>
    <separator name="electronic mixer details" >
     <i type="int" name="IMIX">     1</i>
     <i type="logical" name="MIXFIRST"> F  </i>
     <i type="int" name="MAXMIX">   -45</i>
     <i name="WC">    100.00000000</i>
     <i type="int" name="INIMIX">     1</i>
     <i type="int" name="MIXPRE">     1</i>
     <i type="int" name="MREMOVE">     5</i>
    </separator>
   </separator>
   <separator name="electronic dipolcorrection" >
    <i type="logical" name="LDIPOL"> F  </i>
    <i type="logical" name="LMONO"> F  </i>
    <i type="int" name="IDIPOL">     0</i>
    <i name="EPSILON">      1.00000000</i>
    <v name="DIPOL">   -100.00000000   -100.00000000   -100.00000000</v>
    <i name="EFIELD">      0.00000000</i>
   </separator>
  </separator>
  <separator name="grids" >
   <i type="int" name="NGX">    28</i>
   <i type="int" name="NGY">    28</i>
   <i type="int" name="NGZ">    28</i>
   <i type="int" name="NGXF">    56</i>
   <i type="int" name="NGYF">    56</i>
   <i type="int" name="NGZF">    56</i>
   <i type="logical" name="ADDGRID"> F  </i>
  </separator>
  <separator name="ionic" >
   <i type="int" name="NSW">    20</i>
   <i type="int" name="IBRION">     2</i>
   <i type="int" name="MDALGO">     0</i>
   <i type="int" name="ISIF">     3</i>
   <i name="PSTRESS">      0.00000000</i>
   <i name="EDIFFG">     -0.00500000</i>
   <i type="int" name="NFREE">     1</i>
   <i name="POTIM">      0.50000000</i>
   <i name="SMASS">     -3.00000000</i>
   <i name="SCALEE">      1.00000000</i>
  </separator>
  <separator name="ionic md" >
   <i name="TEBEG">      0.00010000</i>
   <i name="TEEND">      0.00010000</i>
   <i type="int" name="NBLOCK">     1</i>
   <i type="int" name="KBLOCK">    20</i>
   <i type="int" name="NPACO">   256</i>
   <i name="APACO">     16.00000000</i>
  </separator>
  <separator name="symmetry" >
   <i type="int" name="ISYM">     0</i>
   <i name="SYMPREC">      0.00001000</i>
  </separator>
  <separator name="dos" >
   <i type="int" name="LORBIT">    10</i>
   <v name="RWIGS">     -1.00000000     -1.00000000</v>
   <i type="int" name="NEDOS">   301</i>
   <i name="EMIN">     10.00000000</i>
   <i name="EMAX">    -10.00000000</i>
   <i name="EFERMI">      0.00000000</i>
  </separator>
  <separator name="writing" >
   <i type="int" name="NWRITE">     2</i>
   <i type="logical" name="LWAVE"> F  </i>
   <i type="logical" name="LDOWNSAMPLE"> F  </i>
   <i type="logical" name="LCHARG"> F  </i>
   <i type="logical" name="LPARD"> F  </i>
   <i type="logical" name="LVTOT"> F  </i>
   <i type="logical" name="LVHAR"> T  </i>
   <i type="logical" name="LELF"> F  </i>
   <i type="logical" name="LOPTICS"> F  </i>
   <v name="STM">      0.00000000      0.00000000      0.00000000      0.00000000      0.00000000      0.00000000      0.00000000</v>
  </separator>
  <separator name="performance" >
   <i type="int" name="NPAR">     1</i>
   <i type="int" name="NSIM">   512</i>
   <i type="int" name="NBLK">    -1</i>
   <i type="logical" name="LPLANE"> T  </i>
   <i type="logical" name="LSCALAPACK"> T  </i>
   <i type="logical" name="LSCAAWARE"> F  </i>
   <i type="logical" name="LSCALU"> F  </i>
   <i type="logical" name="LASYNC"> F  </i>
   <i type="logical" name="LORBITALREAL"> F  </i>
  </separator>
  <separator name="miscellaneous" >
   <i type="int" name="IDIOT">     3</i>
   <i type="int" name="PHON_NSTRUCT">    -1</i>
   <i type="logical" name="LMUSIC"> F  </i>
   <v name="POMASS">     69.72300000     74.92200000</v>
   <v name="DARWINR">      0.00000000      0.00000000</v>
   <v name="DARWINV">      1.00000000      1.00000000</v>
   <i type="logical" name="LCORR"> T  </i>
  </separator>
  <i type="logical" name="GGA_COMPAT"> T  </i>
  <i type="logical" name="LBERRY"> F  </i>
  <i type="int" name="ICORELEVEL">     0</i>
  <i type="logical" name="LDAU"> F  </i>
  <i type="int" name="I_CONSTRAINED_M">     0</i>
  <separator name="electronic exchange-correlation" >
   <i type="string" name="GGA">PE</i>
   <i type="int" name="VOSKOWN">     0</i>
   <i type="logical" name="LHFCALC"> T  </i>
   <i type="string" name="PRECFOCK">fast</i>
   <i type="logical" name="LSYMGRAD"> F  </i>
   <i type="logical" name="LHFONE"> F  </i>
   <i type="logical" name="LRHFCALC"> F  </i>
   <i type="logical" name="LTHOMAS"> F  </i>
   <i type="logical" name="LMODELHF"> F  </i>
   <i type="logical" name="LFOCKACE"> T  </i>
   <i name="ENCUT4O">     -1.00000000</i>
   <i type="int" name="EXXOEP">     0</i>
   <i type="int" name="FOURORBIT">     0</i>
   <i name="AEXX">      0.28800000</i>
   <i name="HFALPHA">     -1.00000000</i>
   <i name="MCALPHA">      0.00000000</i>
   <i name="ALDAX">      0.71200000</i>
   <i name="AGGAX">      0.71200000</i>
   <i name="ALDAC">      1.00000000</i>
   <i name="AGGAC">      1.00000000</i>
   <i type="int" name="NKREDX">     1</i>
   <i type="int" name="NKREDY">     1</i>
   <i type="int" name="NKREDZ">     1</i>
   <i type="logical" name="SHIFTRED"> F  </i>
   <i type="logical" name="ODDONLY"> F  </i>
   <i type="logical" name="EVENONLY"> F  </i>
   <i type="int" name="LMAXFOCK">     4</i>
   <i type="int" name="NMAXFOCKAE">     1</i>
   <i type="logical" name="LFOCKAEDFT"> F  </i>
   <i name="HFSCREEN">      0.20000000</i>
   <i name="HFSCREENC">      0.20000000</i>
   <i type="int" name="NBANDSGWLOW">     1</i>
  </separator>
  <separator name="vdW DFT" >
   <i type="logical" name="LUSE_VDW"> F  </i>
   <i name="Zab_VDW">     -0.84910000</i>
   <i name="PARAM1">      0.12340000</i>
   <i name="PARAM2">      1.00000000</i>
   <i name="PARAM3">      0.00000000</i>
  </separator>
  <separator name="model GW" >
   <i type="int" name="MODEL_GW">     0</i>
   <i name="MODEL_EPS0">     14.25955782</i>
   <i name="MODEL_ALPHA">      1.00000000</i>
  </separator>
  <separator name="linear response parameters" >
   <i type="logical" name="LEPSILON"> F  </i>
   <i type="logical" name="LRPA"> F  </i>
   <i type="logical" name="LNABLA"> F  </i>
   <i type="logical" name="LVEL"> F  </i>
   <i type="int" name="KINTER">     0</i>
   <i name="CSHIFT">      0.10000000</i>
   <i name="OMEGAMAX">     -1.00000000</i>
   <i name="DEG_THRESHOLD">      0.00200000</i>
   <i name="RTIME">     -0.10000000</i>
   <i name="WPLASMAI">      0.00000000</i>
   <v name="DFIELD">      0.00000000      0.00000000      0.00000000</v>
   <v name="WPLASMA">      0.00000000      0.00000000      0.00000000      0.00000000      0.00000000      0.00000000      0.00000000      0.00000000      0.00000000</v>
  </separator>
  <separator name="orbital magnetization" >
   <i type="logical" name="NUCIND"> F  </i>
   <v name="MAGPOS">      0.00000000      0.00000000      0.00000000</v>
   <i type="logical" name="LNICSALL"> T  </i>
   <i type="logical" name="ORBITALMAG"> F  </i>
   <i type="logical" name="LMAGBLOCH"> F  </i>
   <i type="logical" name="LCHIMAG"> F  </i>
   <i type="logical" name="LGAUGE"> T  </i>
   <i type="int" name="MAGATOM">     0</i>
   <v name="MAGDIPOL">      0.00000000      0.00000000      0.00000000</v>
   <v name="AVECCONST">      0.00000000      0.00000000      0.00000000</v>
  </separator>
  <separator name="response functions" >
   <i type="logical" name="LFINITE_TEMPERATURE"> F  </i>
   <i type="logical" name="LADDER"> F  </i>
   <i type="logical" name="LRPAFORCE"> F  </i>
   <i type="logical" name="LFXC"> F  </i>
   <i type="logical" name="LHARTREE"> T  </i>
   <i type="int" name="IBSE">     0</i>
   <v type="int" name="KPOINT">    -1     0     0     0</v>
   <i type="logical" name="LTCTC"> F  </i>
   <i type="logical" name="LTCTE"> F  </i>
   <i type="logical" name="LTETE"> F  </i>
   <i type="logical" name="LTRIPLET"> F  </i>
   <i type="logical" name="LFXCEPS"> F  </i>
   <i type="logical" name="LFXHEG"> F  </i>
   <i type="int" name="NATURALO">     2</i>
   <i type="logical" name="LHOLEGF"> F  </i>
   <i type="logical" name="L2ORDER"> F  </i>
   <i type="logical" name="LDMP1"> F  </i>
   <i type="logical" name="LMP2LT"> F  </i>
   <i type="logical" name="LSMP2LT"> F  </i>
   <i type="logical" name="LGWLF"> F  </i>
   <i name="ENCUTGW">     -2.00000000</i>
   <i name="ENCUTGWSOFT">     -2.00000000</i>
   <i name="ENCUTLF">     -1.00000000</i>
   <i type="logical" name="LESF_SPLINES"> F  </i>
   <i type="int" name="LMAXMP2">    -1</i>
   <i name="SCISSOR">      0.00000000</i>
   <i type="int" name="NOMEGA">     0</i>
   <i type="int" name="NOMEGAR">     0</i>
   <i type="int" name="NBANDSGW">    -1</i>
   <i type="int" name="NBANDSO">    -1</i>
   <i type="int" name="NBANDSV">    -1</i>
   <i type="int" name="NELM">   100</i>
   <i type="int" name="NELMHF">     1</i>
   <i type="int" name="DIM">     3</i>
   <i type="int" name="IESPILON">     4</i>
   <i type="int" name="ANTIRES">     0</i>
   <i name="OMEGAMAX">    -30.00000000</i>
   <i name="OMEGAMIN">    -30.00000000</i>
   <i name="OMEGATL">   -200.00000000</i>
   <i type="int" name="OMEGAGRID">     0</i>
   <i name="CSHIFT">     -0.10000000</i>
   <i type="logical" name="LSELFENERGY"> F  </i>
   <i type="logical" name="LSPECTRAL"> F  </i>
   <i type="logical" name="LSPECTRALGW"> F  </i>
   <i type="logical" name="LSINGLES"> F  </i>
   <i type="logical" name="LFERMIGW"> F  </i>
   <i type="logical" name="ODDONLYGW"> F  </i>
   <i type="logical" name="EVENONLYGW"> F  </i>
   <i type="int" name="NKREDLFX">     1</i>
   <i type="int" name="NKREDLFY">     1</i>
   <i type="int" name="NKREDLFZ">     1</i>
   <i type="int" name="MAXMEM">  2800</i>
   <i type="int" name="TELESCOPE">     0</i>
   <i type="int" name="NTAUPAR">    -1</i>
   <i type="int" name="NOMEGAPAR">    -1</i>
   <i name="LAMBDA">      1.00000000</i>
  </separator>
  <separator name="External order field" >
   <i name="OFIELD_KAPPA">      0.00000000</i>
   <v name="OFIELD_K">      0.00000000      0.00000000      0.00000000</v>
   <i name="OFIELD_Q6_NEAR">      0.00000000</i>
   <i name="OFIELD_Q6_FAR">      0.00000000</i>
   <i name="OFIELD_A">      0.00000000</i>
  </separator>
 </parameters>
 <atominfo>
  <atoms>       2 </atoms>
  <types>       2 </types>
  <array name="atoms" >
   <dimension dim="1">ion</dimension>
   <field type="string">element</field>
   <field type="int">atomtype</field>
   <set>
    <rc><c>Ga</c><c>   1</c></rc>
    <rc><c>As</c><c>   2</c></rc>
   </set>
  </array>
  <array name="atomtypes" >
   <dimension dim="1">type</dimension>
   <field type="int">atomspertype</field>
   <field type="string">element</field>
   <field>mass</field>
   <field>valence</field>
   <field type="string">pseudopotential</field>
   <set>
    <rc><c>   1</c><c>Ga</c><c>     69.72300000</c><c>     13.00000000</c><c>  PAW_PBE Ga_d 06Jul2010                </c></rc>
    <rc><c>   1</c><c>As</c><c>     74.92200000</c><c>      5.00000000</c><c>  PAW_PBE As 22Sep2009                  </c></rc>
   </set>
  </array>
 </atominfo>
 <structure name="initialpos" >
  <crystal>
   <varray name="basis" >
    <v>       0.00000000       2.87509105       2.87509105 </v>
    <v>       2.87509105       0.00000000       2.87509105 </v>
    <v>       2.87509105       2.87509105       0.00000000 </v>
   </varray>
   <i name="volume">     47.53185938 </i>
   <varray name="rec_basis" >
    <v>      -0.17390754       0.17390754       0.17390754 </v>
    <v>       0.17390754      -0.17390754       0.17390754 </v>
    <v>       0.17390754       0.17390754      -0.17390754 </v>
   </varray>
  </crystal>
  <varray name="positions" >
   <v>       0.00000000       0.00000000       0.00000000 </v>
   <v>       0.25000000       0.25000000       0.25000000 </v>
  </varray>
 </structure>
 <calculation>
  <scstep>
   <time name="dav">    6.72    6.77</time>
   <time name="total">    7.03    7.10</time>
   <energy>
    <i name="alphaZ">     57.30385571 </i>
    <i name="ewald">  -1244.24611287 </i>
    <i name="hartreedc">   -737.88525189 </i>
    <i name="XCdc">     32.14417769 </i>
    <i name="pawpsdc">   1750.22014212 </i>
    <i name="pawaedc">  -3116.69939324 </i>
    <i name="eentropy">     -0.00367742 </i>
    <i name="bandstr">   -180.19428229 </i>
    <i name="atom">   2315.20898083 </i>
    <i name="e_fr_energy">  -1124.15156134 </i>
    <i name="e_wo_entrp">  -1124.14788392 </i>
    <i name="e_0_energy">  -1124.14972263 </i>
   </energy>
  </scstep>
  <scstep>
   <time name="dav">    6.31    6.33</time>
   <time name="total">    6.31    6.33</time>
   <energy>
    <i name="e_fr_energy">  -1159.73984732 </i>
    <i name="e_wo_entrp">  -1159.73953595 </i>
    <i name="e_0_energy">  -1159.73969163 </i>
   </energy>
  </scstep>
  <scstep>
   <time name="dav">    6.94    6.96</time>
   <time name="total">    6.95    6.97</time>
   <energy>
    <i name="e_fr_energy">  -1160.86211048 </i>
    <i name="e_wo_entrp">  -1160.86182540 </i>
    <i name="e_0_energy">  -1160.86196794 </i>
   </energy>
  </scstep>
  <scstep>
   <time name="dav">    6.91    6.93</time>
   <time name="total">    6.91    6.93</time>
   <energy>
    <i name="e_fr_energy">  -1160.86780382 </i>
    <i name="e_wo_entrp">  -1160.86752008 </i>
    <i name="e_0_energy">  -1160.86766195 </i>
   </energy>
  </scstep>
  <scstep>
   <time name="dav">   68.64   69.00</time>
   <time name="total">   69.36   69.74</time>
   <energy>
    <i name="e_fr_energy">    -10.24678190 </i>
    <i name="e_wo_entrp">    -10.24678190 </i>
    <i name="e_0_energy">    -10.24678190 </i>
   </energy>
  </scstep>
  <scstep>
   <time name="dav">   68.93   69.34</time>
   <time name="total">   69.66   70.08</time>
   <energy>
    <i name="e_fr_energy">    -10.16941598 </i>
    <i name="e_wo_entrp">    -10.16941598 </i>
    <i name="e_0_energy">    -10.16941598 </i>
   </energy>
  </scstep>
  <scstep>
   <time name="dav">   69.29   69.73</time>
   <time name="total">   70.01   70.45</time>
   <energy>
    <i name="e_fr_energy">    -10.14547642 </i>
    <i name="e_wo_entrp">    -10.14547642 </i>
    <i name="e_0_energy">    -10.14547642 </i>
   </energy>
  </scstep>
  <scstep>
   <time name="dav">   69.94   70.31</time>
   <time name="total">   70.66   71.03</time>
   <energy>
    <i name="e_fr_energy">    -10.14042527 </i>
    <i name="e_wo_entrp">    -10.14042527 </i>
    <i name="e_0_energy">    -10.14042527 </i>
   </energy>
  </scstep>
  <scstep>
   <time name="dav">   69.85   70.21</time>
   <time name="total">   70.57   70.94</time>
   <energy>
    <i name="e_fr_energy">    -10.13717564 </i>
    <i name="e_wo_entrp">    -10.13717564 </i>
    <i name="e_0_energy">    -10.13717564 </i>
   </energy>
  </scstep>
  <scstep>
   <time name="dav">   69.56   69.92</time>
   <time name="total">   70.29   70.66</time>
   <energy>
    <i name="e_fr_energy">    -10.13608524 </i>
    <i name="e_wo_entrp">    -10.13608524 </i>
    <i name="e_0_energy">    -10.13608524 </i>
   </energy>
  </scstep>
  <scstep>
   <time name="dav">   69.89   70.30</time>
   <time name="total">   70.61   71.03</time>
   <energy>
    <i name="e_fr_energy">    -10.13586920 </i>
    <i name="e_wo_entrp">    -10.13586920 </i>
    <i name="e_0_energy">    -10.13586920 </i>
   </energy>
  </scstep>
  <scstep>
   <time name="dav">   69.98   70.38</time>
   <time name="total">   70.70   71.11</time>
   <energy>
    <i name="e_fr_energy">    -10.13585479 </i>
    <i name="e_wo_entrp">    -10.13585479 </i>
    <i name="e_0_energy">    -10.13585479 </i>
   </energy>
  </scstep>
  <scstep>
   <time name="dav">   69.99   70.36</time>
   <time name="total">   70.72   71.09</time>
   <energy>
    <i name="e_fr_energy">    -10.13587546 </i>
    <i name="e_wo_entrp">    -10.13587546 </i>
    <i name="e_0_energy">    -10.13587546 </i>
   </energy>
  </scstep>
  <scstep>
   <time name="dav">   69.96   70.32</time>
   <time name="total">   70.67   71.04</time>
   <energy>
    <i name="e_fr_energy">    -10.13589589 </i>
    <i name="e_wo_entrp">    -10.13589589 </i>
    <i name="e_0_energy">    -10.13589589 </i>
   </energy>
  </scstep>
  <scstep>
   <time name="dav">   69.86   70.23</time>
   <time name="total">   70.58   70.95</time>
   <energy>
    <i name="e_fr_energy">    -10.13590986 </i>
    <i name="e_wo_entrp">    -10.13590986 </i>
    <i name="e_0_energy">    -10.13590986 </i>
   </energy>
  </scstep>
  <scstep>
   <time name="dav">   69.82   70.21</time>
   <time name="total">   70.53   70.93</time>
   <energy>
    <i name="e_fr_energy">    -10.13591809 </i>
    <i name="e_wo_entrp">    -10.13591809 </i>
    <i name="e_0_energy">    -10.13591809 </i>
   </energy>
  </scstep>
  <scstep>
   <time name="dav">   69.61   70.04</time>
   <time name="total">   70.33   70.77</time>
   <energy>
    <i name="e_fr_energy">    -10.13592262 </i>
    <i name="e_wo_entrp">    -10.13592262 </i>
    <i name="e_0_energy">    -10.13592262 </i>
   </energy>
  </scstep>
  <scstep>
   <time name="dav">   69.89   70.25</time>
   <time name="total">   70.62   70.99</time>
   <energy>
    <i name="e_fr_energy">    -10.13592501 </i>
    <i name="e_wo_entrp">    -10.13592501 </i>
    <i name="e_0_energy">    -10.13592501 </i>
   </energy>
  </scstep>
  <scstep>
   <time name="dav">   69.69   70.06</time>
   <time name="total">   70.42   70.79</time>
   <energy>
    <i name="e_fr_energy">    -10.13592625 </i>
    <i name="e_wo_entrp">    -10.13592625 </i>
    <i name="e_0_energy">    -10.13592625 </i>
   </energy>
  </scstep>
  <scstep>
   <time name="dav">   69.75   70.19</time>
   <time name="total">   70.47   70.92</time>
   <energy>
    <i name="e_fr_energy">    -10.13592688 </i>
    <i name="e_wo_entrp">    -10.13592688 </i>
    <i name="e_0_energy">    -10.13592688 </i>
   </energy>
  </scstep>
  <scstep>
   <time name="dav">   69.92   70.32</time>
   <time name="total">   70.65   71.05</time>
   <energy>
    <i name="e_fr_energy">    -10.13592720 </i>
    <i name="e_wo_entrp">    -10.13592720 </i>
    <i name="e_0_energy">    -10.13592720 </i>
   </energy>
  </scstep>
  <scstep>
   <time name="dav">   69.88   70.29</time>
   <time name="total">   70.61   71.01</time>
   <energy>
    <i name="e_fr_energy">    -10.13592735 </i>
    <i name="e_wo_entrp">    -10.13592735 </i>
    <i name="e_0_energy">    -10.13592735 </i>
   </energy>
  </scstep>
  <scstep>
   <time name="dav">   68.87   69.24</time>
   <time name="total">   69.53   69.90</time>
   <energy>
    <i name="alphaZ">     57.30385571 </i>
    <i name="ewald">  -1244.24611287 </i>
    <i name="hartreedc">   -735.57914386 </i>
    <i name="XCdc">     22.18133222 </i>
    <i name="pawpsdc">   2082.32885165 </i>
    <i name="pawaedc">  -2386.66462667 </i>
    <i name="eentropy">     -0.00000000 </i>
    <i name="bandstr">   -168.39823454 </i>
    <i name="atom">   2315.20898083 </i>
    <i name="e_fr_energy">    -10.13592743 </i>
    <i name="e_wo_entrp">    -10.13592743 </i>
    <i name="e_0_energy">    -10.13592743 </i>
   </energy>
  </scstep>
  <structure>
   <crystal>
    <varray name="basis" >
     <v>       0.00000000       2.87509105       2.87509105 </v>
     <v>       2.87509105       0.00000000       2.87509105 </v>
     <v>       2.87509105       2.87509105       0.00000000 </v>
    </varray>
    <i name="volume">     47.53185938 </i>
    <varray name="rec_basis" >
     <v>      -0.17390754       0.17390754       0.17390754 </v>
     <v>       0.17390754      -0.17390754       0.17390754 </v>
     <v>       0.17390754       0.17390754      -0.17390754 </v>
    </varray>
   </crystal>
   <varray name="positions" >
    <v>       0.00000000       0.00000000       0.00000000 </v>
    <v>       0.25000000       0.25000000       0.25000000 </v>
   </varray>
  </structure>
  <varray name="forces" >
   <v>       0.00001898       0.00001897       0.00001895 </v>
   <v>      -0.00001898      -0.00001897      -0.00001895 </v>
  </varray>
  <varray name="stress" >
   <v>     -31.27490117       0.01155339       0.01155851 </v>
   <v>       0.01155319     -31.27483109       0.01155988 </v>
   <v>       0.01155977       0.01155835     -31.27480358 </v>
  </varray>
  <energy>
   <i name="e_fr_energy">    -10.13592743 </i>
   <i name="e_wo_entrp">    -10.13592743 </i>
   <i name="e_0_energy">    -10.13592743 </i>
  </energy>
  <time name="totalsc"> 1741.72 1751.12</time>
 </calculation>
 <calculation>
  <scstep>
   <time name="dav">   69.15   69.59</time>
   <time name="total">   69.90   70.36</time>
   <energy>
    <i name="alphaZ">     61.33019325 </i>
    <i name="ewald">  -1272.73051070 </i>
    <i name="hartreedc">   -752.41936281 </i>
    <i name="XCdc">     23.25255565 </i>
    <i name="pawpsdc">   2082.33014839 </i>
    <i name="pawaedc">  -2386.66601732 </i>
    <i name="eentropy">     -0.00000000 </i>
    <i name="bandstr">   -129.56928863 </i>
    <i name="atom">   2315.20898083 </i>
    <i name="e_fr_energy">    -10.79636295 </i>
    <i name="e_wo_entrp">    -10.79636295 </i>
    <i name="e_0_energy">    -10.79636295 </i>
   </energy>
  </scstep>
  <scstep>
   <time name="dav">   69.73   70.13</time>
   <time name="total">   70.46   70.86</time>
   <energy>
    <i name="e_fr_energy">    -10.33001741 </i>
    <i name="e_wo_entrp">    -10.33001741 </i>
    <i name="e_0_energy">    -10.33001741 </i>
   </energy>
  </scstep>
  <scstep>
   <time name="dav">   69.52   69.90</time>
   <time name="total">   70.24   70.63</time>
   <energy>
    <i name="e_fr_energy">    -10.20482153 </i>
    <i name="e_wo_entrp">    -10.20482153 </i>
    <i name="e_0_energy">    -10.20482153 </i>
   </energy>
  </scstep>
  <scstep>
   <time name="dav">   70.49   70.87</time>
   <time name="total">   71.22   71.60</time>
   <energy>
    <i name="e_fr_energy">    -10.17092213 </i>
    <i name="e_wo_entrp">    -10.17092213 </i>
    <i name="e_0_energy">    -10.17092213 </i>
   </energy>
  </scstep>
  <scstep>
   <time name="dav">   70.24   70.64</time>
   <time name="total">   70.96   71.36</time>
   <energy>
    <i name="e_fr_energy">    -10.15928900 </i>
    <i name="e_wo_entrp">    -10.15928900 </i>
    <i name="e_0_energy">    -10.15928900 </i>
   </energy>
  </scstep>
  <scstep>
   <time name="dav">   70.17   70.57</time>
   <time name="total">   70.89   71.30</time>
   <energy>
    <i name="e_fr_energy">    -10.15498758 </i>
    <i name="e_wo_entrp">    -10.15498758 </i>
    <i name="e_0_energy">    -10.15498758 </i>
   </energy>
  </scstep>
  <scstep>
   <time name="dav">   70.16   70.53</time>
   <time name="total">   70.88   71.25</time>
   <energy>
    <i name="e_fr_energy">    -10.15336163 </i>
    <i name="e_wo_entrp">    -10.15336163 </i>
    <i name="e_0_energy">    -10.15336163 </i>
   </energy>
  </scstep>
  <scstep>
   <time name="dav">   69.92   70.31</time>
   <time name="total">   70.65   71.04</time>
   <energy>
    <i name="e_fr_energy">    -10.15275599 </i>
    <i name="e_wo_entrp">    -10.15275599 </i>
    <i name="e_0_energy">    -10.15275599 </i>
   </energy>
  </scstep>
  <scstep>
   <time name="dav">   69.92   70.31</time>
   <time name="total">   70.65   71.04</time>
   <energy>
    <i name="e_fr_energy">    -10.15253263 </i>
    <i name="e_wo_entrp">    -10.15253263 </i>
    <i name="e_0_energy">    -10.15253263 </i>
   </energy>
  </scstep>
  <scstep>
   <time name="dav">   69.97   70.39</time>
   <time name="total">   70.69   71.12</time>
   <energy>
    <i name="e_fr_energy">    -10.15245041 </i>
    <i name="e_wo_entrp">    -10.15245041 </i>
    <i name="e_0_energy">    -10.15245041 </i>
   </energy>
  </scstep>
  <scstep>
   <time name="dav">   70.01   70.40</time>
   <time name="total">   70.73   71.13</time>
   <energy>
    <i name="e_fr_energy">    -10.15242016 </i>
    <i name="e_wo_entrp">    -10.15242016 </i>
    <i name="e_0_energy">    -10.15242016 </i>
   </energy>
  </scstep>
  <scstep>
   <time name="dav">   70.06   70.44</time>
   <time name="total">   70.79   71.17</time>
   <energy>
    <i name="e_fr_energy">    -10.15240907 </i>
    <i name="e_wo_entrp">    -10.15240907 </i>
    <i name="e_0_energy">    -10.15240907 </i>
   </energy>
  </scstep>
  <scstep>
   <time name="dav">   70.05   70.45</time>
   <time name="total">   70.77   71.17</time>
   <energy>
    <i name="e_fr_energy">    -10.15240503 </i>
    <i name="e_wo_entrp">    -10.15240503 </i>
    <i name="e_0_energy">    -10.15240503 </i>
   </energy>
  </scstep>
  <scstep>
   <time name="dav">   69.89   70.26</time>
   <time name="total">   70.61   70.98</time>
   <energy>
    <i name="e_fr_energy">    -10.15240357 </i>
    <i name="e_wo_entrp">    -10.15240357 </i>
    <i name="e_0_energy">    -10.15240357 </i>
   </energy>
  </scstep>
  <scstep>
   <time name="dav">   68.43   68.81</time>
   <time name="total">   69.16   69.54</time>
   <energy>
    <i name="e_fr_energy">    -10.15240305 </i>
    <i name="e_wo_entrp">    -10.15240305 </i>
    <i name="e_0_energy">    -10.15240305 </i>
   </energy>
  </scstep>
  <scstep>
   <time name="dav">   68.13   68.50</time>
   <time name="total">   68.85   69.22</time>
   <energy>
    <i name="e_fr_energy">    -10.15240286 </i>
    <i name="e_wo_entrp">    -10.15240286 </i>
    <i name="e_0_energy">    -10.15240286 </i>
   </energy>
  </scstep>
  <scstep>
   <time name="dav">   68.00   68.42</time>
   <time name="total">   68.66   69.09</time>
   <energy>
    <i name="alphaZ">     61.33019325 </i>
    <i name="ewald">  -1272.73051070 </i>
    <i name="hartreedc">   -719.75358570 </i>
    <i name="XCdc">     22.39390737 </i>
    <i name="pawpsdc">   2139.26337018 </i>
    <i name="pawaedc">  -2443.85158427 </i>
    <i name="eentropy">     -0.00000000 </i>
    <i name="bandstr">   -159.99353452 </i>
    <i name="atom">   2315.20898083 </i>
    <i name="e_fr_energy">    -10.15240280 </i>
    <i name="e_wo_entrp">    -10.15240280 </i>
    <i name="e_0_energy">    -10.15240280 </i>
   </energy>
  </scstep>
  <structure>
   <crystal>
    <varray name="basis" >
     <v>       0.00004755       2.81076877       2.81076882 </v>
     <v>       2.81076862       0.00004755       2.81076882 </v>
     <v>       2.81076861       2.81076875       0.00004756 </v>
    </varray>
    <i name="volume">     44.41138480 </i>
    <varray name="rec_basis" >
     <v>      -0.17789180       0.17788878       0.17788878 </v>
     <v>       0.17788879      -0.17789179       0.17788878 </v>
     <v>       0.17788879       0.17788878      -0.17789179 </v>
    </varray>
   </crystal>
   <varray name="positions" >
    <v>       0.00000016       0.00000016       0.00000016 </v>
    <v>       0.24999984       0.24999984       0.24999984 </v>
   </varray>
  </structure>
  <varray name="forces" >
   <v>       0.00013920       0.00013915       0.00013912 </v>
   <v>      -0.00013920      -0.00013915      -0.00013912 </v>
  </varray>
  <varray name="stress" >
   <v>      17.69319523      -0.00703132      -0.00703740 </v>
   <v>      -0.00703310      17.69311773      -0.00703696 </v>
   <v>      -0.00704084      -0.00703861      17.69309269 </v>
  </varray>
  <energy>
   <i name="e_fr_energy">    -10.15240280 </i>
   <i name="e_wo_entrp">    -10.15240280 </i>
   <i name="e_0_energy">    -10.15240280 </i>
  </energy>
  <time name="totalsc"> 1584.28 1592.87</time>
 </calculation>
 <calculation>
  <scstep>
   <time name="dav">   68.92   69.29</time>
   <time name="total">   69.67   70.05</time>
   <energy>
    <i name="alphaZ">     59.99698334 </i>
    <i name="ewald">  -1263.44056310 </i>
    <i name="hartreedc">   -714.49662224 </i>
    <i name="XCdc">     22.05310777 </i>
    <i name="pawpsdc">   2139.25316733 </i>
    <i name="pawaedc">  -2443.84320267 </i>
    <i name="eentropy">     -0.00000000 </i>
    <i name="bandstr">   -172.68063164 </i>
    <i name="atom">   2315.20898083 </i>
    <i name="e_fr_energy">    -10.22247434 </i>
    <i name="e_wo_entrp">    -10.22247434 </i>
    <i name="e_0_energy">    -10.22247434 </i>
   </energy>
  </scstep>
  <scstep>
   <time name="dav">   69.71   70.11</time>
   <time name="total">   70.44   70.84</time>
   <energy>
    <i name="e_fr_energy">    -10.17704772 </i>
    <i name="e_wo_entrp">    -10.17704772 </i>
    <i name="e_0_energy">    -10.17704772 </i>
   </energy>
  </scstep>
  <scstep>
   <time name="dav">   68.91   69.35</time>
   <time name="total">   69.64   70.08</time>
   <energy>
    <i name="e_fr_energy">    -10.16328453 </i>
    <i name="e_wo_entrp">    -10.16328453 </i>
    <i name="e_0_energy">    -10.16328453 </i>
   </energy>
  </scstep>
  <scstep>
   <time name="dav">   69.85   70.25</time>
   <time name="total">   70.57   70.98</time>
   <energy>
    <i name="e_fr_energy">    -10.15962519 </i>
    <i name="e_wo_entrp">    -10.15962519 </i>
    <i name="e_0_energy">    -10.15962519 </i>
   </energy>
  </scstep>
  <scstep>
   <time name="dav">   69.56   69.97</time>
   <time name="total">   70.29   70.69</time>
   <energy>
    <i name="e_fr_energy">    -10.15839574 </i>
    <i name="e_wo_entrp">    -10.15839574 </i>
    <i name="e_0_energy">    -10.15839574 </i>
   </energy>
  </scstep>
  <scstep>
   <time name="dav">   69.80   70.17</time>
   <time name="total">   70.52   70.89</time>
   <energy>
    <i name="e_fr_energy">    -10.15794452 </i>
    <i name="e_wo_entrp">    -10.15794452 </i>
    <i name="e_0_energy">    -10.15794452 </i>
   </energy>
  </scstep>
  <scstep>
   <time name="dav">   69.68   70.05</time>
   <time name="total">   70.41   70.78</time>
   <energy>
    <i name="e_fr_energy">    -10.15777402 </i>
    <i name="e_wo_entrp">    -10.15777402 </i>
    <i name="e_0_energy">    -10.15777402 </i>
   </energy>
  </scstep>
  <scstep>
   <time name="dav">   69.39   69.77</time>
   <time name="total">   70.11   70.50</time>
   <energy>
    <i name="e_fr_energy">    -10.15771022 </i>
    <i name="e_wo_entrp">    -10.15771022 </i>
    <i name="e_0_energy">    -10.15771022 </i>
   </energy>
  </scstep>
  <scstep>
   <time name="dav">   69.40   69.79</time>
   <time name="total">   70.13   70.52</time>
   <energy>
    <i name="e_fr_energy">    -10.15768655 </i>
    <i name="e_wo_entrp">    -10.15768655 </i>
    <i name="e_0_energy">    -10.15768655 </i>
   </energy>
  </scstep>
  <scstep>
   <time name="dav">   69.78   70.18</time>
   <time name="total">   70.50   70.91</time>
   <energy>
    <i name="e_fr_energy">    -10.15767776 </i>
    <i name="e_wo_entrp">    -10.15767776 </i>
    <i name="e_0_energy">    -10.15767776 </i>
   </energy>
  </scstep>
  <scstep>
   <time name="dav">   69.56   69.95</time>
   <time name="total">   70.28   70.67</time>
   <energy>
    <i name="e_fr_energy">    -10.15767450 </i>
    <i name="e_wo_entrp">    -10.15767450 </i>
    <i name="e_0_energy">    -10.15767450 </i>
   </energy>
  </scstep>
  <scstep>
   <time name="dav">   69.34   69.72</time>
   <time name="total">   70.06   70.44</time>
   <energy>
    <i name="e_fr_energy">    -10.15767328 </i>
    <i name="e_wo_entrp">    -10.15767328 </i>
    <i name="e_0_energy">    -10.15767328 </i>
   </energy>
  </scstep>
  <scstep>
   <time name="dav">   67.61   67.97</time>
   <time name="total">   68.32   68.69</time>
   <energy>
    <i name="e_fr_energy">    -10.15767282 </i>
    <i name="e_wo_entrp">    -10.15767282 </i>
    <i name="e_0_energy">    -10.15767282 </i>
   </energy>
  </scstep>
  <scstep>
   <time name="dav">   67.64   68.01</time>
   <time name="total">   68.36   68.73</time>
   <energy>
    <i name="e_fr_energy">    -10.15767265 </i>
    <i name="e_wo_entrp">    -10.15767265 </i>
    <i name="e_0_energy">    -10.15767265 </i>
   </energy>
  </scstep>
  <scstep>
   <time name="dav">   67.56   67.94</time>
   <time name="total">   68.23   68.61</time>
   <energy>
    <i name="alphaZ">     59.99698334 </i>
    <i name="ewald">  -1263.44056310 </i>
    <i name="hartreedc">   -724.87459319 </i>
    <i name="XCdc">     22.32361060 </i>
    <i name="pawpsdc">   2119.96328742 </i>
    <i name="pawaedc">  -2424.47076020 </i>
    <i name="eentropy">     -0.00000000 </i>
    <i name="bandstr">   -162.76292790 </i>
    <i name="atom">   2315.20898083 </i>
    <i name="e_fr_energy">    -10.15767258 </i>
    <i name="e_wo_entrp">    -10.15767258 </i>
    <i name="e_0_energy">    -10.15767258 </i>
   </energy>
  </scstep>
  <structure>
   <crystal>
    <varray name="basis" >
     <v>       0.00003228       2.83142823       2.83142827 </v>
     <v>       2.83142814       0.00003228       2.83142827 </v>
     <v>       2.83142813       2.83142823       0.00003229 </v>
    </varray>
    <i name="volume">     45.39826272 </i>
    <varray name="rec_basis" >
     <v>      -0.17659235       0.17659033       0.17659033 </v>
     <v>       0.17659034      -0.17659234       0.17659033 </v>
     <v>       0.17659034       0.17659033      -0.17659234 </v>
    </varray>
   </crystal>
   <varray name="positions" >
    <v>       0.00000011       0.00000011       0.00000011 </v>
    <v>       0.24999989       0.24999989       0.24999989 </v>
   </varray>
  </structure>
  <varray name="forces" >
   <v>       0.00009088       0.00009093       0.00009105 </v>
   <v>      -0.00009088      -0.00009093      -0.00009105 </v>
  </varray>
  <varray name="stress" >
   <v>      -0.14438077      -0.00076773      -0.00076896 </v>
   <v>      -0.00076425      -0.14431223      -0.00077012 </v>
   <v>      -0.00076636      -0.00077092      -0.14432847 </v>
  </varray>
  <energy>
   <i name="e_fr_energy">    -10.15767258 </i>
   <i name="e_wo_entrp">    -10.15767258 </i>
   <i name="e_0_energy">    -10.15767258 </i>
  </energy>
  <time name="totalsc"> 1306.64 1313.78</time>
  <eigenvalues>
   <array>
    <dimension dim="1">band</dimension>
    <dimension dim="2">kpoint</dimension>
    <dimension dim="3">spin</dimension>
    <field>eigene</field>
    <field>occ</field>
    <set>
     <set comment="spin 1">
      <set comment="kpoint 1">
       <r>  -14.3781    1.0000 </r>
       <r>  -14.3780    1.0000 </r>
       <r>  -14.3780    1.0000 </r>
       <r>  -14.2979    1.0000 </r>
       <r>  -14.2979    1.0000 </r>
       <r>  -10.7406    1.0000 </r>
       <r>    3.3831    1.0000 </r>
       <r>    3.3831    1.0000 </r>
       <r>    3.3831    1.0000 </r>
       <r>    4.9109    0.0000 </r>
       <r>    8.0700    0.0000 </r>
       <r>    8.0703    0.0000 </r>
       <r>    8.0703    0.0000 </r>
      </set>
      <set comment="kpoint 2">
       <r>  -14.3858    1.0000 </r>
       <r>  -14.3751    1.0000 </r>
       <r>  -14.3751    1.0000 </r>
       <r>  -14.2982    1.0000 </r>
       <r>  -14.2982    1.0000 </r>
       <r>  -10.5438    1.0000 </r>
       <r>    1.4309    1.0000 </r>
       <r>    3.1360    1.0000 </r>
       <r>    3.1360    1.0000 </r>
       <r>    5.9100    0.0000 </r>
       <r>    8.4408    0.0000 </r>
       <r>    8.4410    0.0000 </r>
       <r>    8.5300    0.0000 </r>
      </set>
      <set comment="kpoint 3">
       <r>  -14.3858    1.0000 </r>
       <r>  -14.3751    1.0000 </r>
       <r>  -14.3751    1.0000 </r>
       <r>  -14.2982    1.0000 </r>
       <r>  -14.2982    1.0000 </r>
       <r>  -10.5438    1.0000 </r>
       <r>    1.4309    1.0000 </r>
       <r>    3.1359    1.0000 </r>
       <r>    3.1360    1.0000 </r>
       <r>    5.9100    0.0000 </r>
       <r>    8.4408    0.0000 </r>
       <r>    8.4410    0.0000 </r>
       <r>    8.5300    0.0000 </r>
      </set>
      <set comment="kpoint 4">
       <r>  -14.3858    1.0000 </r>
       <r>  -14.3751    1.0000 </r>
       <r>  -14.3751    1.0000 </r>
       <r>  -14.2982    1.0000 </r>
       <r>  -14.2982    1.0000 </r>
       <r>  -10.5438    1.0000 </r>
       <r>    1.4309    1.0000 </r>
       <r>    3.1360    1.0000 </r>
       <r>    3.1360    1.0000 </r>
       <r>    5.9100    0.0000 </r>
       <r>    8.4408    0.0000 </r>
       <r>    8.4410    0.0000 </r>
       <r>    8.5300    0.0000 </r>
      </set>
      <set comment="kpoint 5">
       <r>  -14.3858    1.0000 </r>
       <r>  -14.3751    1.0000 </r>
       <r>  -14.3751    1.0000 </r>
       <r>  -14.2982    1.0000 </r>
       <r>  -14.2982    1.0000 </r>
       <r>  -10.5439    1.0000 </r>
       <r>    1.4308    1.0000 </r>
       <r>    3.1360    1.0000 </r>
       <r>    3.1360    1.0000 </r>
       <r>    5.9101    0.0000 </r>
       <r>    8.4410    0.0000 </r>
       <r>    8.4410    0.0000 </r>
       <r>    8.5298    0.0000 </r>
      </set>
      <set comment="kpoint 6">
       <r>  -14.4033    1.0000 </r>
       <r>  -14.3681    1.0000 </r>
       <r>  -14.3681    1.0000 </r>
       <r>  -14.2979    1.0000 </r>
       <r>  -14.2979    1.0000 </r>
       <r>   -9.9892    1.0000 </r>
       <r>   -1.0426    1.0000 </r>
       <r>    2.6594    1.0000 </r>
       <r>    2.6594    1.0000 </r>
       <r>    5.7622    0.0000 </r>
       <r>    8.9888    0.0000 </r>
       <r>    8.9891    0.0000 </r>
       <r>   10.4532    0.0000 </r>
      </set>
      <set comment="kpoint 7">
       <r>  -14.4033    1.0000 </r>
       <r>  -14.3681    1.0000 </r>
       <r>  -14.3681    1.0000 </r>
       <r>  -14.2979    1.0000 </r>
       <r>  -14.2979    1.0000 </r>
       <r>   -9.9892    1.0000 </r>
       <r>   -1.0426    1.0000 </r>
       <r>    2.6594    1.0000 </r>
       <r>    2.6594    1.0000 </r>
       <r>    5.7622    0.0000 </r>
       <r>    8.9888    0.0000 </r>
       <r>    8.9891    0.0000 </r>
       <r>   10.4532    0.0000 </r>
      </set>
      <set comment="kpoint 8">
       <r>  -14.4033    1.0000 </r>
       <r>  -14.3681    1.0000 </r>
       <r>  -14.3681    1.0000 </r>
       <r>  -14.2979    1.0000 </r>
       <r>  -14.2979    1.0000 </r>
       <r>   -9.9892    1.0000 </r>
       <r>   -1.0426    1.0000 </r>
       <r>    2.6594    1.0000 </r>
       <r>    2.6594    1.0000 </r>
       <r>    5.7622    0.0000 </r>
       <r>    8.9888    0.0000 </r>
       <r>    8.9891    0.0000 </r>
       <r>   10.4532    0.0000 </r>
      </set>
      <set comment="kpoint 9">
       <r>  -14.4033    1.0000 </r>
       <r>  -14.3681    1.0000 </r>
       <r>  -14.3681    1.0000 </r>
       <r>  -14.2979    1.0000 </r>
       <r>  -14.2979    1.0000 </r>
       <r>   -9.9893    1.0000 </r>
       <r>   -1.0427    1.0000 </r>
       <r>    2.6595    1.0000 </r>
       <r>    2.6595    1.0000 </r>
       <r>    5.7623    0.0000 </r>
       <r>    8.9890    0.0000 </r>
       <r>    8.9890    0.0000 </r>
       <r>   10.4531    0.0000 </r>
      </set>
      <set comment="kpoint 10">
       <r>  -14.4206    1.0000 </r>
       <r>  -14.3622    1.0000 </r>
       <r>  -14.3622    1.0000 </r>
       <r>  -14.2964    1.0000 </r>
       <r>  -14.2964    1.0000 </r>
       <r>   -9.2403    1.0000 </r>
       <r>   -3.0321    1.0000 </r>
       <r>    2.2835    1.0000 </r>
       <r>    2.2835    1.0000 </r>
       <r>    5.4039    0.0000 </r>
       <r>    9.0566    0.0000 </r>
       <r>    9.0568    0.0000 </r>
       <r>   12.1440    0.0000 </r>
      </set>
      <set comment="kpoint 11">
       <r>  -14.4206    1.0000 </r>
       <r>  -14.3622    1.0000 </r>
       <r>  -14.3622    1.0000 </r>
       <r>  -14.2964    1.0000 </r>
       <r>  -14.2964    1.0000 </r>
       <r>   -9.2403    1.0000 </r>
       <r>   -3.0321    1.0000 </r>
       <r>    2.2835    1.0000 </r>
       <r>    2.2835    1.0000 </r>
       <r>    5.4039    0.0000 </r>
       <r>    9.0566    0.0000 </r>
       <r>    9.0568    0.0000 </r>
       <r>   12.1440    0.0000 </r>
      </set>
      <set comment="kpoint 12">
       <r>  -14.4206    1.0000 </r>
       <r>  -14.3622    1.0000 </r>
       <r>  -14.3622    1.0000 </r>
       <r>  -14.2964    1.0000 </r>
       <r>  -14.2964    1.0000 </r>
       <r>   -9.2403    1.0000 </r>
       <r>   -3.0321    1.0000 </r>
       <r>    2.2835    1.0000 </r>
       <r>    2.2835    1.0000 </r>
       <r>    5.4039    0.0000 </r>
       <r>    9.0566    0.0000 </r>
       <r>    9.0568    0.0000 </r>
       <r>   12.1440    0.0000 </r>
      </set>
      <set comment="kpoint 13">
       <r>  -14.4206    1.0000 </r>
       <r>  -14.3622    1.0000 </r>
       <r>  -14.3622    1.0000 </r>
       <r>  -14.2964    1.0000 </r>
       <r>  -14.2964    1.0000 </r>
       <r>   -9.2404    1.0000 </r>
       <r>   -3.0321    1.0000 </r>
       <r>    2.2836    1.0000 </r>
       <r>    2.2836    1.0000 </r>
       <r>    5.4041    0.0000 </r>
       <r>    9.0568    0.0000 </r>
       <r>    9.0568    0.0000 </r>
       <r>   12.1440    0.0000 </r>
      </set>
      <set comment="kpoint 14">
       <r>  -14.4274    1.0000 </r>
       <r>  -14.3602    1.0000 </r>
       <r>  -14.3602    1.0000 </r>
       <r>  -14.2955    1.0000 </r>
       <r>  -14.2955    1.0000 </r>
       <r>   -8.8127    1.0000 </r>
       <r>   -3.8844    1.0000 </r>
       <r>    2.1471    1.0000 </r>
       <r>    2.1471    1.0000 </r>
       <r>    5.2685    0.0000 </r>
       <r>    8.9902    0.0000 </r>
       <r>    8.9904    0.0000 </r>
       <r>   12.1856    0.0000 </r>
      </set>
      <set comment="kpoint 15">
       <r>  -14.4274    1.0000 </r>
       <r>  -14.3602    1.0000 </r>
       <r>  -14.3602    1.0000 </r>
       <r>  -14.2955    1.0000 </r>
       <r>  -14.2955    1.0000 </r>
       <r>   -8.8127    1.0000 </r>
       <r>   -3.8844    1.0000 </r>
       <r>    2.1471    1.0000 </r>
       <r>    2.1471    1.0000 </r>
       <r>    5.2685    0.0000 </r>
       <r>    8.9902    0.0000 </r>
       <r>    8.9904    0.0000 </r>
       <r>   12.1856    0.0000 </r>
      </set>
      <set comment="kpoint 16">
       <r>  -14.4274    1.0000 </r>
       <r>  -14.3602    1.0000 </r>
       <r>  -14.3602    1.0000 </r>
       <r>  -14.2955    1.0000 </r>
       <r>  -14.2955    1.0000 </r>
       <r>   -8.8127    1.0000 </r>
       <r>   -3.8844    1.0000 </r>
       <r>    2.1471    1.0000 </r>
       <r>    2.1471    1.0000 </r>
       <r>    5.2685    0.0000 </r>
       <r>    8.9902    0.0000 </r>
       <r>    8.9904    0.0000 </r>
       <r>   12.1856    0.0000 </r>
      </set>
      <set comment="kpoint 17">
       <r>  -14.4274    1.0000 </r>
       <r>  -14.3602    1.0000 </r>
       <r>  -14.3602    1.0000 </r>
       <r>  -14.2955    1.0000 </r>
       <r>  -14.2955    1.0000 </r>
       <r>   -8.8128    1.0000 </r>
       <r>   -3.8843    1.0000 </r>
       <r>    2.1472    1.0000 </r>
       <r>    2.1472    1.0000 </r>
       <r>    5.2687    0.0000 </r>
       <r>    8.9904    0.0000 </r>
       <r>    8.9904    0.0000 </r>
       <r>   12.1857    0.0000 </r>
      </set>
      <set comment="kpoint 18">
       <r>  -14.3915    1.0000 </r>
       <r>  -14.3721    1.0000 </r>
       <r>  -14.3721    1.0000 </r>
       <r>  -14.3004    1.0000 </r>
       <r>  -14.2964    1.0000 </r>
       <r>  -10.4779    1.0000 </r>
       <r>    1.4403    1.0000 </r>
       <r>    2.6914    1.0000 </r>
       <r>    2.6915    1.0000 </r>
       <r>    6.6878    0.0000 </r>
       <r>    7.3607    0.0000 </r>
       <r>    9.0856    0.0000 </r>
       <r>    9.0857    0.0000 </r>
      </set>
      <set comment="kpoint 19">
       <r>  -14.3915    1.0000 </r>
       <r>  -14.3721    1.0000 </r>
       <r>  -14.3721    1.0000 </r>
       <r>  -14.3004    1.0000 </r>
       <r>  -14.2964    1.0000 </r>
       <r>  -10.4779    1.0000 </r>
       <r>    1.4403    1.0000 </r>
       <r>    2.6914    1.0000 </r>
       <r>    2.6915    1.0000 </r>
       <r>    6.6878    0.0000 </r>
       <r>    7.3607    0.0000 </r>
       <r>    9.0856    0.0000 </r>
       <r>    9.0857    0.0000 </r>
      </set>
      <set comment="kpoint 20">
       <r>  -14.3915    1.0000 </r>
       <r>  -14.3721    1.0000 </r>
       <r>  -14.3721    1.0000 </r>
       <r>  -14.3004    1.0000 </r>
       <r>  -14.2964    1.0000 </r>
       <r>  -10.4779    1.0000 </r>
       <r>    1.4403    1.0000 </r>
       <r>    2.6914    1.0000 </r>
       <r>    2.6915    1.0000 </r>
       <r>    6.6878    0.0000 </r>
       <r>    7.3607    0.0000 </r>
       <r>    9.0856    0.0000 </r>
       <r>    9.0857    0.0000 </r>
      </set>
      <set comment="kpoint 21">
       <r>  -14.4060    1.0000 </r>
       <r>  -14.3661    1.0000 </r>
       <r>  -14.3649    1.0000 </r>
       <r>  -14.3023    1.0000 </r>
       <r>  -14.2951    1.0000 </r>
       <r>  -10.0395    1.0000 </r>
       <r>   -0.4478    1.0000 </r>
       <r>    2.1576    1.0000 </r>
       <r>    2.1783    1.0000 </r>
       <r>    6.8331    0.0000 </r>
       <r>    7.7802    0.0000 </r>
       <r>    9.8807    0.0000 </r>
       <r>    9.9409    0.0000 </r>
      </set>
      <set comment="kpoint 22">
       <r>  -14.4060    1.0000 </r>
       <r>  -14.3661    1.0000 </r>
       <r>  -14.3649    1.0000 </r>
       <r>  -14.3023    1.0000 </r>
       <r>  -14.2951    1.0000 </r>
       <r>  -10.0395    1.0000 </r>
       <r>   -0.4478    1.0000 </r>
       <r>    2.1576    1.0000 </r>
       <r>    2.1783    1.0000 </r>
       <r>    6.8331    0.0000 </r>
       <r>    7.7802    0.0000 </r>
       <r>    9.8807    0.0000 </r>
       <r>    9.9409    0.0000 </r>
      </set>
      <set comment="kpoint 23">
       <r>  -14.4060    1.0000 </r>
       <r>  -14.3661    1.0000 </r>
       <r>  -14.3649    1.0000 </r>
       <r>  -14.3023    1.0000 </r>
       <r>  -14.2951    1.0000 </r>
       <r>  -10.0395    1.0000 </r>
       <r>   -0.4478    1.0000 </r>
       <r>    2.1576    1.0000 </r>
       <r>    2.1783    1.0000 </r>
       <r>    6.8331    0.0000 </r>
       <r>    7.7802    0.0000 </r>
       <r>    9.8807    0.0000 </r>
       <r>    9.9409    0.0000 </r>
      </set>
      <set comment="kpoint 24">
       <r>  -14.4060    1.0000 </r>
       <r>  -14.3661    1.0000 </r>
       <r>  -14.3649    1.0000 </r>
       <r>  -14.3023    1.0000 </r>
       <r>  -14.2951    1.0000 </r>
       <r>  -10.0395    1.0000 </r>
       <r>   -0.4478    1.0000 </r>
       <r>    2.1577    1.0000 </r>
       <r>    2.1783    1.0000 </r>
       <r>    6.8331    0.0000 </r>
       <r>    7.7800    0.0000 </r>
       <r>    9.8808    0.0000 </r>
       <r>    9.9409    0.0000 </r>
      </set>
      <set comment="kpoint 25">
       <r>  -14.4060    1.0000 </r>
       <r>  -14.3661    1.0000 </r>
       <r>  -14.3649    1.0000 </r>
       <r>  -14.3023    1.0000 </r>
       <r>  -14.2951    1.0000 </r>
       <r>  -10.0395    1.0000 </r>
       <r>   -0.4479    1.0000 </r>
       <r>    2.1577    1.0000 </r>
       <r>    2.1783    1.0000 </r>
       <r>    6.8332    0.0000 </r>
       <r>    7.7802    0.0000 </r>
       <r>    9.8808    0.0000 </r>
       <r>    9.9409    0.0000 </r>
      </set>
      <set comment="kpoint 26">
       <r>  -14.4060    1.0000 </r>
       <r>  -14.3661    1.0000 </r>
       <r>  -14.3649    1.0000 </r>
       <r>  -14.3023    1.0000 </r>
       <r>  -14.2951    1.0000 </r>
       <r>  -10.0395    1.0000 </r>
       <r>   -0.4478    1.0000 </r>
       <r>    2.1576    1.0000 </r>
       <r>    2.1783    1.0000 </r>
       <r>    6.8331    0.0000 </r>
       <r>    7.7802    0.0000 </r>
       <r>    9.8807    0.0000 </r>
       <r>    9.9409    0.0000 </r>
      </set>
      <set comment="kpoint 27">
       <r>  -14.4060    1.0000 </r>
       <r>  -14.3661    1.0000 </r>
       <r>  -14.3649    1.0000 </r>
       <r>  -14.3023    1.0000 </r>
       <r>  -14.2951    1.0000 </r>
       <r>  -10.0395    1.0000 </r>
       <r>   -0.4478    1.0000 </r>
       <r>    2.1577    1.0000 </r>
       <r>    2.1783    1.0000 </r>
       <r>    6.8331    0.0000 </r>
       <r>    7.7800    0.0000 </r>
       <r>    9.8808    0.0000 </r>
       <r>    9.9409    0.0000 </r>
      </set>
      <set comment="kpoint 28">
       <r>  -14.4060    1.0000 </r>
       <r>  -14.3661    1.0000 </r>
       <r>  -14.3649    1.0000 </r>
       <r>  -14.3023    1.0000 </r>
       <r>  -14.2951    1.0000 </r>
       <r>  -10.0395    1.0000 </r>
       <r>   -0.4479    1.0000 </r>
       <r>    2.1577    1.0000 </r>
       <r>    2.1783    1.0000 </r>
       <r>    6.8332    0.0000 </r>
       <r>    7.7802    0.0000 </r>
       <r>    9.8808    0.0000 </r>
       <r>    9.9409    0.0000 </r>
      </set>
      <set comment="kpoint 29">
       <r>  -14.4060    1.0000 </r>
       <r>  -14.3661    1.0000 </r>
       <r>  -14.3649    1.0000 </r>
       <r>  -14.3023    1.0000 </r>
       <r>  -14.2951    1.0000 </r>
       <r>  -10.0395    1.0000 </r>
       <r>   -0.4478    1.0000 </r>
       <r>    2.1576    1.0000 </r>
       <r>    2.1783    1.0000 </r>
       <r>    6.8331    0.0000 </r>
       <r>    7.7802    0.0000 </r>
       <r>    9.8807    0.0000 </r>
       <r>    9.9409    0.0000 </r>
      </set>
      <set comment="kpoint 30">
       <r>  -14.4060    1.0000 </r>
       <r>  -14.3661    1.0000 </r>
       <r>  -14.3649    1.0000 </r>
       <r>  -14.3023    1.0000 </r>
       <r>  -14.2951    1.0000 </r>
       <r>  -10.0395    1.0000 </r>
       <r>   -0.4478    1.0000 </r>
       <r>    2.1577    1.0000 </r>
       <r>    2.1783    1.0000 </r>
       <r>    6.8331    0.0000 </r>
       <r>    7.7800    0.0000 </r>
       <r>    9.8808    0.0000 </r>
       <r>    9.9409    0.0000 </r>
      </set>
      <set comment="kpoint 31">
       <r>  -14.4060    1.0000 </r>
       <r>  -14.3661    1.0000 </r>
       <r>  -14.3649    1.0000 </r>
       <r>  -14.3023    1.0000 </r>
       <r>  -14.2951    1.0000 </r>
       <r>  -10.0395    1.0000 </r>
       <r>   -0.4479    1.0000 </r>
       <r>    2.1577    1.0000 </r>
       <r>    2.1783    1.0000 </r>
       <r>    6.8332    0.0000 </r>
       <r>    7.7802    0.0000 </r>
       <r>    9.8808    0.0000 </r>
       <r>    9.9409    0.0000 </r>
      </set>
[...]
        <r>  0.0013  0.3128  0.0047 </r>
       </set>
       <set comment="band 10">
        <r>  0.1287  0.0829  0.0440 </r>
        <r>  0.0374  0.1346  0.0395 </r>
       </set>
       <set comment="band 11">
        <r>  0.0032  0.1700  0.0522 </r>
        <r>  0.0510  0.1156  0.0410 </r>
       </set>
       <set comment="band 12">
        <r>  0.1198  0.0920  0.0271 </r>
        <r>  0.0002  0.1929  0.0599 </r>
       </set>
       <set comment="band 13">
        <r>  0.0170  0.2339  0.0508 </r>
        <r>  0.0255  0.0793  0.0633 </r>
       </set>
      </set>
      <set comment="kpoint 250">
       <set comment="band 1">
        <r>  0.0001  0.0005  0.9687 </r>
        <r>  0.0148  0.0001  0.0000 </r>
       </set>
       <set comment="band 2">
        <r>  0.0000  0.0000  0.9885 </r>
        <r>  0.0000  0.0013  0.0004 </r>
       </set>
       <set comment="band 3">
        <r>  0.0000  0.0001  0.9891 </r>
        <r>  0.0000  0.0016  0.0003 </r>
       </set>
       <set comment="band 4">
        <r>  0.0000  0.0000  0.9900 </r>
        <r>  0.0000  0.0001  0.0002 </r>
       </set>
       <set comment="band 5">
        <r>  0.0000  0.0000  0.9910 </r>
        <r>  0.0000  0.0001  0.0001 </r>
       </set>
       <set comment="band 6">
        <r>  0.0413  0.0431  0.0331 </r>
        <r>  0.5689  0.0033  0.0003 </r>
       </set>
       <set comment="band 7">
        <r>  0.3962  0.0187  0.0042 </r>
        <r>  0.0370  0.1571  0.0066 </r>
       </set>
       <set comment="band 8">
        <r>  0.0093  0.1558  0.0101 </r>
        <r>  0.0023  0.2592  0.0021 </r>
       </set>
       <set comment="band 9">
        <r>  0.0042  0.1756  0.0158 </r>
        <r>  0.0013  0.3128  0.0047 </r>
       </set>
       <set comment="band 10">
        <r>  0.1287  0.0829  0.0440 </r>
        <r>  0.0374  0.1346  0.0395 </r>
       </set>
       <set comment="band 11">
        <r>  0.0032  0.1700  0.0522 </r>
        <r>  0.0510  0.1156  0.0410 </r>
       </set>
       <set comment="band 12">
        <r>  0.1198  0.0920  0.0271 </r>
        <r>  0.0002  0.1929  0.0599 </r>
       </set>
       <set comment="band 13">
        <r>  0.0170  0.2339  0.0508 </r>
        <r>  0.0255  0.0793  0.0633 </r>
       </set>
      </set>
      <set comment="kpoint 251">
       <set comment="band 1">
        <r>  0.0001  0.0005  0.9687 </r>
        <r>  0.0148  0.0001  0.0000 </r>
       </set>
       <set comment="band 2">
        <r>  0.0000  0.0000  0.9885 </r>
        <r>  0.0000  0.0013  0.0004 </r>
       </set>
       <set comment="band 3">
        <r>  0.0000  0.0001  0.9891 </r>
        <r>  0.0000  0.0016  0.0003 </r>
       </set>
       <set comment="band 4">
        <r>  0.0000  0.0000  0.9900 </r>
        <r>  0.0000  0.0001  0.0002 </r>
       </set>
       <set comment="band 5">
        <r>  0.0000  0.0000  0.9910 </r>
        <r>  0.0000  0.0001  0.0001 </r>
       </set>
       <set comment="band 6">
        <r>  0.0413  0.0431  0.0331 </r>
        <r>  0.5689  0.0033  0.0003 </r>
       </set>
       <set comment="band 7">
        <r>  0.3962  0.0187  0.0042 </r>
        <r>  0.0370  0.1571  0.0066 </r>
       </set>
       <set comment="band 8">
        <r>  0.0093  0.1558  0.0101 </r>
        <r>  0.0023  0.2592  0.0021 </r>
       </set>
       <set comment="band 9">
        <r>  0.0042  0.1756  0.0158 </r>
        <r>  0.0013  0.3128  0.0047 </r>
       </set>
       <set comment="band 10">
        <r>  0.1287  0.0829  0.0440 </r>
        <r>  0.0374  0.1346  0.0395 </r>
       </set>
       <set comment="band 11">
        <r>  0.0032  0.1700  0.0522 </r>
        <r>  0.0510  0.1156  0.0410 </r>
       </set>
       <set comment="band 12">
        <r>  0.1198  0.0920  0.0271 </r>
        <r>  0.0002  0.1929  0.0599 </r>
       </set>
       <set comment="band 13">
        <r>  0.0170  0.2339  0.0508 </r>
        <r>  0.0255  0.0793  0.0633 </r>
       </set>
      </set>
      <set comment="kpoint 252">
       <set comment="band 1">
        <r>  0.0000  0.0005  0.9678 </r>
        <r>  0.0153  0.0000  0.0001 </r>
       </set>
       <set comment="band 2">
        <r>  0.0000  0.0000  0.9896 </r>
        <r>  0.0001  0.0011  0.0005 </r>
       </set>
       <set comment="band 3">
        <r>  0.0000  0.0001  0.9898 </r>
        <r>  0.0000  0.0014  0.0003 </r>
       </set>
       <set comment="band 4">
        <r>  0.0000  0.0000  0.9888 </r>
        <r>  0.0000  0.0004  0.0002 </r>
       </set>
       <set comment="band 5">
        <r>  0.0000  0.0000  0.9916 </r>
        <r>  0.0000  0.0000  0.0000 </r>
       </set>
       <set comment="band 6">
        <r>  0.0000  0.0550  0.0358 </r>
        <r>  0.6103  0.0000  0.0002 </r>
       </set>
       <set comment="band 7">
        <r>  0.4438  0.0002  0.0034 </r>
        <r>  0.0000  0.1587  0.0062 </r>
       </set>
       <set comment="band 8">
        <r>  0.0066  0.1615  0.0131 </r>
        <r>  0.0000  0.2960  0.0012 </r>
       </set>
       <set comment="band 9">
        <r>  0.0000  0.1896  0.0042 </r>
        <r>  0.0011  0.2807  0.0040 </r>
       </set>
       <set comment="band 10">
        <r>  0.0000  0.1352  0.0517 </r>
        <r>  0.0606  0.0547  0.0360 </r>
       </set>
       <set comment="band 11">
        <r>  0.1912  0.0317  0.0409 </r>
        <r>  0.0000  0.1383  0.0502 </r>
       </set>
       <set comment="band 12">
        <r>  0.0000  0.2277  0.0541 </r>
        <r>  0.0425  0.1573  0.0372 </r>
       </set>
       <set comment="band 13">
        <r>  0.0728  0.1880  0.0246 </r>
        <r>  0.0000  0.1878  0.0793 </r>
       </set>
      </set>
      <set comment="kpoint 253">
       <set comment="band 1">
        <r>  0.0000  0.0005  0.9678 </r>
        <r>  0.0153  0.0000  0.0001 </r>
       </set>
       <set comment="band 2">
        <r>  0.0000  0.0000  0.9896 </r>
        <r>  0.0001  0.0011  0.0005 </r>
       </set>
       <set comment="band 3">
        <r>  0.0000  0.0001  0.9898 </r>
        <r>  0.0000  0.0014  0.0003 </r>
       </set>
       <set comment="band 4">
        <r>  0.0000  0.0000  0.9888 </r>
        <r>  0.0000  0.0004  0.0002 </r>
       </set>
       <set comment="band 5">
        <r>  0.0000  0.0000  0.9916 </r>
        <r>  0.0000  0.0000  0.0000 </r>
       </set>
       <set comment="band 6">
        <r>  0.0000  0.0550  0.0358 </r>
        <r>  0.6103  0.0000  0.0002 </r>
       </set>
       <set comment="band 7">
        <r>  0.4438  0.0002  0.0034 </r>
        <r>  0.0000  0.1587  0.0062 </r>
       </set>
       <set comment="band 8">
        <r>  0.0066  0.1615  0.0131 </r>
        <r>  0.0000  0.2960  0.0012 </r>
       </set>
       <set comment="band 9">
        <r>  0.0000  0.1896  0.0042 </r>
        <r>  0.0011  0.2807  0.0040 </r>
       </set>
       <set comment="band 10">
        <r>  0.0000  0.1352  0.0517 </r>
        <r>  0.0606  0.0547  0.0360 </r>
       </set>
       <set comment="band 11">
        <r>  0.1912  0.0317  0.0409 </r>
        <r>  0.0000  0.1383  0.0502 </r>
       </set>
       <set comment="band 12">
        <r>  0.0000  0.2277  0.0541 </r>
        <r>  0.0425  0.1573  0.0372 </r>
       </set>
       <set comment="band 13">
        <r>  0.0728  0.1880  0.0246 </r>
        <r>  0.0000  0.1878  0.0793 </r>
       </set>
      </set>
      <set comment="kpoint 254">
       <set comment="band 1">
        <r>  0.0000  0.0005  0.9678 </r>
        <r>  0.0153  0.0000  0.0001 </r>
       </set>
       <set comment="band 2">
        <r>  0.0000  0.0000  0.9896 </r>
        <r>  0.0001  0.0011  0.0005 </r>
       </set>
       <set comment="band 3">
        <r>  0.0000  0.0001  0.9898 </r>
        <r>  0.0000  0.0014  0.0003 </r>
       </set>
       <set comment="band 4">
        <r>  0.0000  0.0000  0.9888 </r>
        <r>  0.0000  0.0004  0.0002 </r>
       </set>
       <set comment="band 5">
        <r>  0.0000  0.0000  0.9916 </r>
        <r>  0.0000  0.0000  0.0000 </r>
       </set>
       <set comment="band 6">
        <r>  0.0000  0.0550  0.0358 </r>
        <r>  0.6103  0.0000  0.0002 </r>
       </set>
       <set comment="band 7">
        <r>  0.4438  0.0002  0.0034 </r>
        <r>  0.0000  0.1587  0.0062 </r>
       </set>
       <set comment="band 8">
        <r>  0.0066  0.1615  0.0131 </r>
        <r>  0.0000  0.2960  0.0012 </r>
       </set>
       <set comment="band 9">
        <r>  0.0000  0.1896  0.0042 </r>
        <r>  0.0011  0.2807  0.0040 </r>
       </set>
       <set comment="band 10">
        <r>  0.0000  0.1352  0.0517 </r>
        <r>  0.0606  0.0547  0.0360 </r>
       </set>
       <set comment="band 11">
        <r>  0.1912  0.0317  0.0409 </r>
        <r>  0.0000  0.1383  0.0502 </r>
       </set>
       <set comment="band 12">
        <r>  0.0000  0.2277  0.0541 </r>
        <r>  0.0425  0.1573  0.0372 </r>
       </set>
       <set comment="band 13">
        <r>  0.0728  0.1880  0.0246 </r>
        <r>  0.0000  0.1878  0.0793 </r>
       </set>
      </set>
      <set comment="kpoint 255">
       <set comment="band 1">
        <r>  0.0000  0.0005  0.9678 </r>
        <r>  0.0153  0.0000  0.0001 </r>
       </set>
       <set comment="band 2">
        <r>  0.0000  0.0000  0.9896 </r>
        <r>  0.0001  0.0011  0.0005 </r>
       </set>
       <set comment="band 3">
        <r>  0.0000  0.0001  0.9898 </r>
        <r>  0.0000  0.0014  0.0003 </r>
       </set>
       <set comment="band 4">
        <r>  0.0000  0.0000  0.9888 </r>
        <r>  0.0000  0.0004  0.0002 </r>
       </set>
       <set comment="band 5">
        <r>  0.0000  0.0000  0.9916 </r>
        <r>  0.0000  0.0000  0.0000 </r>
       </set>
       <set comment="band 6">
        <r>  0.0000  0.0550  0.0358 </r>
        <r>  0.6103  0.0000  0.0002 </r>
       </set>
       <set comment="band 7">
        <r>  0.4438  0.0002  0.0034 </r>
        <r>  0.0000  0.1587  0.0062 </r>
       </set>
       <set comment="band 8">
        <r>  0.0066  0.1615  0.0131 </r>
        <r>  0.0000  0.2960  0.0012 </r>
       </set>
       <set comment="band 9">
        <r>  0.0000  0.1896  0.0042 </r>
        <r>  0.0011  0.2807  0.0040 </r>
       </set>
       <set comment="band 10">
        <r>  0.0000  0.1352  0.0517 </r>
        <r>  0.0606  0.0547  0.0360 </r>
       </set>
       <set comment="band 11">
        <r>  0.1912  0.0317  0.0409 </r>
        <r>  0.0000  0.1383  0.0502 </r>
       </set>
       <set comment="band 12">
        <r>  0.0000  0.2277  0.0541 </r>
        <r>  0.0425  0.1573  0.0372 </r>
       </set>
       <set comment="band 13">
        <r>  0.0728  0.1880  0.0246 </r>
        <r>  0.0000  0.1878  0.0793 </r>
       </set>
      </set>
      <set comment="kpoint 256">
       <set comment="band 1">
        <r>  0.0000  0.0005  0.9678 </r>
        <r>  0.0153  0.0000  0.0001 </r>
       </set>
       <set comment="band 2">
        <r>  0.0000  0.0000  0.9896 </r>
        <r>  0.0001  0.0011  0.0005 </r>
       </set>
       <set comment="band 3">
        <r>  0.0000  0.0001  0.9898 </r>
        <r>  0.0000  0.0014  0.0003 </r>
       </set>
       <set comment="band 4">
        <r>  0.0000  0.0000  0.9888 </r>
        <r>  0.0000  0.0004  0.0002 </r>
       </set>
       <set comment="band 5">
        <r>  0.0000  0.0000  0.9916 </r>
        <r>  0.0000  0.0000  0.0000 </r>
       </set>
       <set comment="band 6">
        <r>  0.0000  0.0550  0.0358 </r>
        <r>  0.6103  0.0000  0.0002 </r>
       </set>
       <set comment="band 7">
        <r>  0.4438  0.0002  0.0034 </r>
        <r>  0.0000  0.1587  0.0062 </r>
       </set>
       <set comment="band 8">
        <r>  0.0066  0.1615  0.0131 </r>
        <r>  0.0000  0.2960  0.0012 </r>
       </set>
       <set comment="band 9">
        <r>  0.0000  0.1896  0.0042 </r>
        <r>  0.0011  0.2807  0.0040 </r>
       </set>
       <set comment="band 10">
        <r>  0.0000  0.1352  0.0517 </r>
        <r>  0.0606  0.0547  0.0360 </r>
       </set>
       <set comment="band 11">
        <r>  0.1912  0.0317  0.0409 </r>
        <r>  0.0000  0.1383  0.0502 </r>
       </set>
       <set comment="band 12">
        <r>  0.0000  0.2277  0.0541 </r>
        <r>  0.0425  0.1573  0.0372 </r>
       </set>
       <set comment="band 13">
        <r>  0.0728  0.1880  0.0246 </r>
        <r>  0.0000  0.1878  0.0793 </r>
       </set>
      </set>
      <set comment="kpoint 257">
       <set comment="band 1">
        <r>  0.0000  0.0005  0.9678 </r>
        <r>  0.0153  0.0000  0.0001 </r>
       </set>
       <set comment="band 2">
        <r>  0.0000  0.0000  0.9896 </r>
        <r>  0.0001  0.0011  0.0005 </r>
       </set>
       <set comment="band 3">
        <r>  0.0000  0.0001  0.9898 </r>
        <r>  0.0000  0.0014  0.0003 </r>
       </set>
       <set comment="band 4">
        <r>  0.0000  0.0000  0.9888 </r>
        <r>  0.0000  0.0004  0.0002 </r>
       </set>
       <set comment="band 5">
        <r>  0.0000  0.0000  0.9916 </r>
        <r>  0.0000  0.0000  0.0000 </r>
       </set>
       <set comment="band 6">
        <r>  0.0000  0.0550  0.0358 </r>
        <r>  0.6103  0.0000  0.0002 </r>
       </set>
       <set comment="band 7">
        <r>  0.4438  0.0002  0.0034 </r>
        <r>  0.0000  0.1587  0.0062 </r>
       </set>
       <set comment="band 8">
        <r>  0.0066  0.1615  0.0131 </r>
        <r>  0.0000  0.2960  0.0012 </r>
       </set>
       <set comment="band 9">
        <r>  0.0000  0.1896  0.0042 </r>
        <r>  0.0011  0.2807  0.0040 </r>
       </set>
       <set comment="band 10">
        <r>  0.0000  0.1352  0.0517 </r>
        <r>  0.0606  0.0547  0.0360 </r>
       </set>
       <set comment="band 11">
        <r>  0.1912  0.0317  0.0409 </r>
        <r>  0.0000  0.1383  0.0502 </r>
       </set>
       <set comment="band 12">
        <r>  0.0000  0.2277  0.0541 </r>
        <r>  0.0425  0.1573  0.0372 </r>
       </set>
       <set comment="band 13">
        <r>  0.0728  0.1880  0.0246 </r>
        <r>  0.0000  0.1878  0.0793 </r>
       </set>
      </set>
      <set comment="kpoint 258">
       <set comment="band 1">
        <r>  0.0000  0.0006  0.9679 </r>
        <r>  0.0156  0.0000  0.0000 </r>
       </set>
       <set comment="band 2">
        <r>  0.0000  0.0000  0.9890 </r>
        <r>  0.0000  0.0011  0.0005 </r>
       </set>
       <set comment="band 3">
        <r>  0.0000  0.0001  0.9896 </r>
        <r>  0.0000  0.0015  0.0003 </r>
       </set>
       <set comment="band 4">
        <r>  0.0000  0.0000  0.9897 </r>
        <r>  0.0000  0.0001  0.0002 </r>
       </set>
       <set comment="band 5">
        <r>  0.0000  0.0000  0.9910 </r>
        <r>  0.0000  0.0001  0.0000 </r>
       </set>
       <set comment="band 6">
        <r>  0.0000  0.0536  0.0377 </r>
        <r>  0.6141  0.0000  0.0001 </r>
       </set>
       <set comment="band 7">
        <r>  0.4630  0.0000  0.0010 </r>
        <r>  0.0000  0.1553  0.0075 </r>
       </set>
       <set comment="band 8">
        <r>  0.0000  0.1444  0.0179 </r>
        <r>  0.0000  0.2848  0.0000 </r>
       </set>
       <set comment="band 9">
        <r>  0.0000  0.1908  0.0015 </r>
        <r>  0.0000  0.2574  0.0055 </r>
       </set>
       <set comment="band 10">
        <r>  0.0000  0.0131  0.0825 </r>
        <r>  0.0000  0.2048  0.0409 </r>
       </set>
       <set comment="band 11">
        <r>  0.2573  0.0000  0.0234 </r>
        <r>  0.0000  0.2974  0.0414 </r>
       </set>
       <set comment="band 12">
        <r>  0.0000  0.3225  0.0288 </r>
        <r>  0.1102  0.0000  0.0332 </r>
       </set>
       <set comment="band 13">
        <r>  0.0000  0.2120  0.0523 </r>
        <r>  0.0000  0.0065  0.0908 </r>
       </set>
      </set>
      <set comment="kpoint 259">
       <set comment="band 1">
        <r>  0.0000  0.0006  0.9679 </r>
        <r>  0.0156  0.0000  0.0000 </r>
       </set>
       <set comment="band 2">
        <r>  0.0000  0.0000  0.9890 </r>
        <r>  0.0000  0.0011  0.0005 </r>
       </set>
       <set comment="band 3">
        <r>  0.0000  0.0001  0.9896 </r>
        <r>  0.0000  0.0015  0.0003 </r>
       </set>
       <set comment="band 4">
        <r>  0.0000  0.0000  0.9897 </r>
        <r>  0.0000  0.0001  0.0002 </r>
       </set>
       <set comment="band 5">
        <r>  0.0000  0.0000  0.9910 </r>
        <r>  0.0000  0.0001  0.0000 </r>
       </set>
       <set comment="band 6">
        <r>  0.0000  0.0536  0.0377 </r>
        <r>  0.6141  0.0000  0.0001 </r>
       </set>
       <set comment="band 7">
        <r>  0.4630  0.0000  0.0010 </r>
        <r>  0.0000  0.1553  0.0075 </r>
       </set>
       <set comment="band 8">
        <r>  0.0000  0.1444  0.0179 </r>
        <r>  0.0000  0.2848  0.0000 </r>
       </set>
       <set comment="band 9">
        <r>  0.0000  0.1908  0.0015 </r>
        <r>  0.0000  0.2574  0.0055 </r>
       </set>
       <set comment="band 10">
        <r>  0.0000  0.0131  0.0825 </r>
        <r>  0.0000  0.2048  0.0409 </r>
       </set>
       <set comment="band 11">
        <r>  0.2573  0.0000  0.0234 </r>
        <r>  0.0000  0.2974  0.0414 </r>
       </set>
       <set comment="band 12">
        <r>  0.0000  0.3225  0.0288 </r>
        <r>  0.1102  0.0000  0.0332 </r>
       </set>
       <set comment="band 13">
        <r>  0.0000  0.2120  0.0523 </r>
        <r>  0.0000  0.0065  0.0908 </r>
       </set>
      </set>
      <set comment="kpoint 260">
       <set comment="band 1">
        <r>  0.0000  0.0006  0.9679 </r>
        <r>  0.0156  0.0000  0.0000 </r>
       </set>
       <set comment="band 2">
        <r>  0.0000  0.0000  0.9890 </r>
        <r>  0.0000  0.0011  0.0005 </r>
       </set>
       <set comment="band 3">
        <r>  0.0000  0.0001  0.9896 </r>
        <r>  0.0000  0.0015  0.0003 </r>
       </set>
       <set comment="band 4">
        <r>  0.0000  0.0000  0.9897 </r>
        <r>  0.0000  0.0001  0.0002 </r>
       </set>
       <set comment="band 5">
        <r>  0.0000  0.0000  0.9910 </r>
        <r>  0.0000  0.0001  0.0000 </r>
       </set>
       <set comment="band 6">
        <r>  0.0000  0.0536  0.0377 </r>
        <r>  0.6141  0.0000  0.0001 </r>
       </set>
       <set comment="band 7">
        <r>  0.4630  0.0000  0.0010 </r>
        <r>  0.0000  0.1553  0.0075 </r>
       </set>
       <set comment="band 8">
        <r>  0.0000  0.1444  0.0179 </r>
        <r>  0.0000  0.2848  0.0000 </r>
       </set>
       <set comment="band 9">
        <r>  0.0000  0.1908  0.0015 </r>
        <r>  0.0000  0.2574  0.0055 </r>
       </set>
       <set comment="band 10">
        <r>  0.0000  0.0131  0.0825 </r>
        <r>  0.0000  0.2048  0.0409 </r>
       </set>
       <set comment="band 11">
        <r>  0.2573  0.0000  0.0234 </r>
        <r>  0.0000  0.2974  0.0414 </r>
       </set>
       <set comment="band 12">
        <r>  0.0000  0.3225  0.0288 </r>
        <r>  0.1102  0.0000  0.0332 </r>
       </set>
       <set comment="band 13">
        <r>  0.0000  0.2120  0.0523 </r>
        <r>  0.0000  0.0065  0.0908 </r>
       </set>
      </set>
     </set>
    </set>
   </array>
  </projected>
 </calculation>
 <structure name="finalpos" >
  <crystal>
   <varray name="basis" >
    <v>       0.00003228       2.83142823       2.83142827 </v>
    <v>       2.83142814       0.00003228       2.83142827 </v>
    <v>       2.83142813       2.83142823       0.00003229 </v>
   </varray>
   <i name="volume">     45.39826272 </i>
   <varray name="rec_basis" >
    <v>      -0.17659235       0.17659033       0.17659033 </v>
    <v>       0.17659034      -0.17659234       0.17659033 </v>
    <v>       0.17659034       0.17659033      -0.17659234 </v>
   </varray>
  </crystal>
  <varray name="positions" >
   <v>       0.00000011       0.00000011       0.00000011 </v>
   <v>       0.24999989       0.24999989       0.24999989 </v>
  </varray>
 </structure>
</modeling>
