<?xml version="1.0" encoding="ISO-8859-1"?>
<modeling>
 <generator>
  <i name="program" type="string">vasp </i>
  <i name="version" type="string">6.1.0  </i>
  <i name="subversion" type="string">28Jan20 (build Jun 21 2024 05:31:27) complex                          parallel </i>
  <i name="platform" type="string">LinuxNV </i>
  <i name="date" type="string">2025 03 08 </i>
  <i name="time" type="string">12:25:20 </i>
 </generator>
 <incar>
  <i type="int" name="ISTART">     1</i>
  <i type="string" name="PREC">  Accurate</i>
  <i type="string" name="ALGO">  Normal</i>
  <i type="int" name="ICHARG">     1</i>
  <i type="int" name="NELM">   100</i>
  <i type="int" name="IBRION">     2</i>
  <i name="EDIFF">      0.00000010</i>
  <i name="EDIFFG">     -0.00500000</i>
  <i type="int" name="NSW">   100</i>
  <i type="int" name="ISIF">     3</i>
  <i type="int" name="ISYM">     0</i>
  <i name="ENCUT">    400.00000000</i>
  <v name="MAGMOM">      0.60000000      0.60000000      0.60000000      0.60000000      0.60000000</v>
  <i type="logical" name="LREAL"> F  </i>
  <i type="int" name="ISMEAR">    -5</i>
  <i name="SIGMA">      0.01000000</i>
  <i type="int" name="LMAXMIX">     4</i>
  <i type="logical" name="LWAVE"> T  </i>
  <i type="logical" name="LCHARG"> T  </i>
  <i type="logical" name="LVTOT"> F  </i>
  <i type="logical" name="LVHAR"> T  </i>
  <i type="logical" name="LASPH"> T  </i>
  <i type="logical" name="LAECHG"> F  </i>
  <i type="string" name="ALGO">  Normal</i>
  <i type="int" name="NELM">   100</i>
  <i name="HFSCREEN">      0.20000000</i>
  <i type="logical" name="LHFCALC"> T  </i>
  <i type="string" name="GGA">  Pe</i>
  <i type="int" name="ISIF">     3</i>
  <i type="int" name="ISYM">     0</i>
  <i name="HFSCREEN">      0.20000000</i>
  <i name="AEXX">      0.27200000</i>
  <i type="string" name="PRECFOCK"> Fast</i>
  <i name="EDIFF">      0.00000010</i>
  <i type="logical" name="LASPH"> T  </i>
 </incar>
 <structure name="primitive_cell" >
  <crystal>
   <varray name="basis" >
    <v>       4.43720070       0.00000000       0.00000000 </v>
    <v>      -2.21860035       3.84272853       0.00000000 </v>
    <v>       0.00000000       0.00000000       7.61485279 </v>
   </varray>
   <i name="volume">    129.84053293 </i>
   <varray name="rec_basis" >
    <v>       0.22536731       0.13011588      -0.00000000 </v>
    <v>       0.00000000       0.26023176       0.00000000 </v>
    <v>       0.00000000      -0.00000000       0.13132230 </v>
   </varray>
  </crystal>
  <varray name="positions" >
   <v>       0.00000000       0.00000000       0.00000000 </v>
   <v>       0.66666667       0.33333333       0.36968804 </v>
   <v>       0.33333333       0.66666667       0.63031196 </v>
   <v>       0.66666667       0.33333333       0.73157145 </v>
   <v>       0.33333333       0.66666667       0.26842855 </v>
  </varray>
 </structure>
 <varray name="primitive_index" >
  <v type="int" >        1 </v>
  <v type="int" >        2 </v>
  <v type="int" >        3 </v>
  <v type="int" >        4 </v>
  <v type="int" >        5 </v>
 </varray>
 <kpoints>
  <generation param="Gamma">
   <v type="int" name="divisions">      10       10        5 </v>
   <v name="usershift">      0.00000000       0.00000000       0.00000000 </v>
   <v name="genvec1">      0.10000000       0.00000000       0.00000000 </v>
   <v name="genvec2">      0.00000000       0.10000000       0.00000000 </v>
   <v name="genvec3">      0.00000000       0.00000000       0.20000000 </v>
   <v name="shift">      0.00000000       0.00000000       0.00000000 </v>
  </generation>
  <varray name="kpointlist" >
   <v>       0.00000000       0.00000000       0.00000000 </v>
   <v>       0.10000000       0.00000000       0.00000000 </v>
   <v>       0.10000000      -0.10000000       0.00000000 </v>
   <v>       0.00000000      -0.10000000       0.00000000 </v>
   <v>       0.20000000       0.00000000       0.00000000 </v>
   <v>       0.20000000      -0.20000000       0.00000000 </v>
   <v>       0.00000000      -0.20000000       0.00000000 </v>
   <v>       0.30000000       0.00000000       0.00000000 </v>
   <v>       0.30000000      -0.30000000       0.00000000 </v>
   <v>       0.00000000      -0.30000000       0.00000000 </v>
   <v>       0.40000000       0.00000000       0.00000000 </v>
   <v>       0.40000000      -0.40000000       0.00000000 </v>
   <v>       0.00000000      -0.40000000       0.00000000 </v>
   <v>       0.50000000       0.00000000       0.00000000 </v>
   <v>       0.50000000       0.50000000       0.00000000 </v>
   <v>       0.00000000       0.50000000       0.00000000 </v>
   <v>       0.10000000       0.10000000       0.00000000 </v>
   <v>       0.20000000      -0.10000000       0.00000000 </v>
   <v>       0.10000000      -0.20000000       0.00000000 </v>
   <v>       0.20000000       0.10000000       0.00000000 </v>
   <v>       0.30000000      -0.20000000       0.00000000 </v>
   <v>       0.10000000      -0.30000000       0.00000000 </v>
   <v>      -0.10000000      -0.20000000       0.00000000 </v>
   <v>       0.20000000      -0.30000000       0.00000000 </v>
   <v>       0.30000000      -0.10000000       0.00000000 </v>
   <v>       0.30000000       0.10000000       0.00000000 </v>
   <v>       0.40000000      -0.30000000       0.00000000 </v>
   <v>       0.10000000      -0.40000000       0.00000000 </v>
   <v>      -0.10000000      -0.30000000       0.00000000 </v>
   <v>       0.30000000      -0.40000000       0.00000000 </v>
   <v>       0.40000000      -0.10000000       0.00000000 </v>
   <v>       0.40000000       0.10000000       0.00000000 </v>
   <v>       0.50000000      -0.40000000       0.00000000 </v>
   <v>       0.10000000       0.50000000       0.00000000 </v>
   <v>      -0.10000000      -0.40000000       0.00000000 </v>
   <v>       0.40000000       0.50000000       0.00000000 </v>
   <v>       0.50000000      -0.10000000       0.00000000 </v>
   <v>       0.20000000       0.20000000       0.00000000 </v>
   <v>       0.40000000      -0.20000000       0.00000000 </v>
   <v>       0.20000000      -0.40000000       0.00000000 </v>
   <v>       0.30000000       0.20000000       0.00000000 </v>
   <v>       0.50000000      -0.30000000       0.00000000 </v>
   <v>       0.20000000       0.50000000       0.00000000 </v>
   <v>      -0.20000000      -0.30000000       0.00000000 </v>
   <v>       0.30000000       0.50000000       0.00000000 </v>
   <v>       0.50000000      -0.20000000       0.00000000 </v>
   <v>       0.40000000       0.20000000       0.00000000 </v>
   <v>      -0.40000000      -0.40000000       0.00000000 </v>
   <v>       0.20000000       0.40000000       0.00000000 </v>
   <v>       0.30000000       0.30000000       0.00000000 </v>
   <v>      -0.40000000      -0.30000000       0.00000000 </v>
   <v>       0.30000000       0.40000000       0.00000000 </v>
   <v>       0.00000000       0.00000000       0.20000000 </v>
   <v>       0.10000000       0.00000000       0.20000000 </v>
   <v>       0.10000000      -0.10000000       0.20000000 </v>
   <v>       0.00000000      -0.10000000       0.20000000 </v>
   <v>      -0.10000000       0.00000000       0.20000000 </v>
   <v>      -0.10000000       0.10000000       0.20000000 </v>
   <v>       0.00000000       0.10000000       0.20000000 </v>
   <v>       0.20000000       0.00000000       0.20000000 </v>
   <v>       0.20000000      -0.20000000       0.20000000 </v>
   <v>       0.00000000      -0.20000000       0.20000000 </v>
   <v>      -0.20000000       0.00000000       0.20000000 </v>
   <v>      -0.20000000       0.20000000       0.20000000 </v>
   <v>       0.00000000       0.20000000       0.20000000 </v>
   <v>       0.30000000       0.00000000       0.20000000 </v>
   <v>       0.30000000      -0.30000000       0.20000000 </v>
   <v>       0.00000000      -0.30000000       0.20000000 </v>
   <v>      -0.30000000       0.00000000       0.20000000 </v>
   <v>      -0.30000000       0.30000000       0.20000000 </v>
   <v>       0.00000000       0.30000000       0.20000000 </v>
   <v>       0.40000000       0.00000000       0.20000000 </v>
   <v>       0.40000000      -0.40000000       0.20000000 </v>
   <v>       0.00000000      -0.40000000       0.20000000 </v>
   <v>      -0.40000000       0.00000000       0.20000000 </v>
   <v>      -0.40000000       0.40000000       0.20000000 </v>
   <v>       0.00000000       0.40000000       0.20000000 </v>
   <v>       0.50000000       0.00000000       0.20000000 </v>
   <v>       0.50000000       0.50000000       0.20000000 </v>
   <v>       0.00000000       0.50000000       0.20000000 </v>
   <v>       0.10000000       0.10000000       0.20000000 </v>
   <v>       0.20000000      -0.10000000       0.20000000 </v>
   <v>       0.10000000      -0.20000000       0.20000000 </v>
   <v>      -0.10000000      -0.10000000       0.20000000 </v>
   <v>      -0.20000000       0.10000000       0.20000000 </v>
   <v>      -0.10000000       0.20000000       0.20000000 </v>
   <v>       0.20000000       0.10000000       0.20000000 </v>
   <v>       0.30000000      -0.20000000       0.20000000 </v>
   <v>       0.10000000      -0.30000000       0.20000000 </v>
   <v>      -0.20000000      -0.10000000       0.20000000 </v>
   <v>      -0.30000000       0.20000000       0.20000000 </v>
   <v>      -0.10000000       0.30000000       0.20000000 </v>
   <v>      -0.10000000      -0.20000000      -0.20000000 </v>
   <v>       0.20000000      -0.30000000      -0.20000000 </v>
   <v>       0.30000000      -0.10000000      -0.20000000 </v>
   <v>       0.10000000       0.20000000      -0.20000000 </v>
   <v>      -0.20000000       0.30000000      -0.20000000 </v>
   <v>      -0.30000000       0.10000000      -0.20000000 </v>
   <v>       0.30000000       0.10000000       0.20000000 </v>
   <v>       0.40000000      -0.30000000       0.20000000 </v>
   <v>       0.10000000      -0.40000000       0.20000000 </v>
   <v>      -0.30000000      -0.10000000       0.20000000 </v>
   <v>      -0.40000000       0.30000000       0.20000000 </v>
   <v>      -0.10000000       0.40000000       0.20000000 </v>
   <v>      -0.10000000      -0.30000000      -0.20000000 </v>
   <v>       0.30000000      -0.40000000      -0.20000000 </v>
   <v>       0.40000000      -0.10000000      -0.20000000 </v>
   <v>       0.10000000       0.30000000      -0.20000000 </v>
   <v>      -0.30000000       0.40000000      -0.20000000 </v>
   <v>      -0.40000000       0.10000000      -0.20000000 </v>
   <v>       0.40000000       0.10000000       0.20000000 </v>
   <v>       0.50000000      -0.40000000       0.20000000 </v>
   <v>       0.10000000       0.50000000       0.20000000 </v>
   <v>      -0.40000000      -0.10000000       0.20000000 </v>
   <v>       0.50000000       0.40000000       0.20000000 </v>
   <v>      -0.10000000       0.50000000       0.20000000 </v>
   <v>      -0.10000000      -0.40000000      -0.20000000 </v>
   <v>       0.40000000       0.50000000      -0.20000000 </v>
   <v>       0.50000000      -0.10000000      -0.20000000 </v>
   <v>       0.10000000       0.40000000      -0.20000000 </v>
   <v>      -0.40000000       0.50000000      -0.20000000 </v>
   <v>       0.50000000       0.10000000      -0.20000000 </v>
   <v>       0.20000000       0.20000000       0.20000000 </v>
   <v>       0.40000000      -0.20000000       0.20000000 </v>
   <v>       0.20000000      -0.40000000       0.20000000 </v>
   <v>      -0.20000000      -0.20000000       0.20000000 </v>
   <v>      -0.40000000       0.20000000       0.20000000 </v>
   <v>      -0.20000000       0.40000000       0.20000000 </v>
   <v>       0.30000000       0.20000000       0.20000000 </v>
   <v>       0.50000000      -0.30000000       0.20000000 </v>
   <v>       0.20000000       0.50000000       0.20000000 </v>
   <v>      -0.30000000      -0.20000000       0.20000000 </v>
   <v>       0.50000000       0.30000000       0.20000000 </v>
   <v>      -0.20000000       0.50000000       0.20000000 </v>
   <v>      -0.20000000      -0.30000000      -0.20000000 </v>
   <v>       0.30000000       0.50000000      -0.20000000 </v>
   <v>       0.50000000      -0.20000000      -0.20000000 </v>
   <v>       0.20000000       0.30000000      -0.20000000 </v>
   <v>      -0.30000000       0.50000000      -0.20000000 </v>
   <v>       0.50000000       0.20000000      -0.20000000 </v>
   <v>       0.40000000       0.20000000       0.20000000 </v>
   <v>      -0.40000000      -0.40000000       0.20000000 </v>
   <v>       0.20000000       0.40000000       0.20000000 </v>
   <v>      -0.40000000      -0.20000000       0.20000000 </v>
   <v>       0.40000000       0.40000000       0.20000000 </v>
   <v>      -0.20000000      -0.40000000       0.20000000 </v>
   <v>       0.30000000       0.30000000       0.20000000 </v>
   <v>      -0.40000000      -0.30000000       0.20000000 </v>
   <v>       0.30000000       0.40000000       0.20000000 </v>
   <v>      -0.30000000      -0.30000000       0.20000000 </v>
   <v>       0.40000000       0.30000000       0.20000000 </v>
   <v>      -0.30000000      -0.40000000       0.20000000 </v>
   <v>       0.00000000       0.00000000       0.40000000 </v>
   <v>       0.10000000       0.00000000       0.40000000 </v>
   <v>       0.10000000      -0.10000000       0.40000000 </v>
   <v>       0.00000000      -0.10000000       0.40000000 </v>
   <v>      -0.10000000       0.00000000       0.40000000 </v>
   <v>      -0.10000000       0.10000000       0.40000000 </v>
   <v>       0.00000000       0.10000000       0.40000000 </v>
   <v>       0.20000000       0.00000000       0.40000000 </v>
   <v>       0.20000000      -0.20000000       0.40000000 </v>
   <v>       0.00000000      -0.20000000       0.40000000 </v>
   <v>      -0.20000000       0.00000000       0.40000000 </v>
   <v>      -0.20000000       0.20000000       0.40000000 </v>
   <v>       0.00000000       0.20000000       0.40000000 </v>
   <v>       0.30000000       0.00000000       0.40000000 </v>
   <v>       0.30000000      -0.30000000       0.40000000 </v>
   <v>       0.00000000      -0.30000000       0.40000000 </v>
   <v>      -0.30000000       0.00000000       0.40000000 </v>
   <v>      -0.30000000       0.30000000       0.40000000 </v>
   <v>       0.00000000       0.30000000       0.40000000 </v>
   <v>       0.40000000       0.00000000       0.40000000 </v>
   <v>       0.40000000      -0.40000000       0.40000000 </v>
   <v>       0.00000000      -0.40000000       0.40000000 </v>
   <v>      -0.40000000       0.00000000       0.40000000 </v>
   <v>      -0.40000000       0.40000000       0.40000000 </v>
   <v>       0.00000000       0.40000000       0.40000000 </v>
   <v>       0.50000000       0.00000000       0.40000000 </v>
   <v>       0.50000000       0.50000000       0.40000000 </v>
   <v>       0.00000000       0.50000000       0.40000000 </v>
   <v>       0.10000000       0.10000000       0.40000000 </v>
   <v>       0.20000000      -0.10000000       0.40000000 </v>
   <v>       0.10000000      -0.20000000       0.40000000 </v>
   <v>      -0.10000000      -0.10000000       0.40000000 </v>
   <v>      -0.20000000       0.10000000       0.40000000 </v>
   <v>      -0.10000000       0.20000000       0.40000000 </v>
   <v>       0.20000000       0.10000000       0.40000000 </v>
   <v>       0.30000000      -0.20000000       0.40000000 </v>
   <v>       0.10000000      -0.30000000       0.40000000 </v>
   <v>      -0.20000000      -0.10000000       0.40000000 </v>
   <v>      -0.30000000       0.20000000       0.40000000 </v>
   <v>      -0.10000000       0.30000000       0.40000000 </v>
   <v>      -0.10000000      -0.20000000      -0.40000000 </v>
   <v>       0.20000000      -0.30000000      -0.40000000 </v>
   <v>       0.30000000      -0.10000000      -0.40000000 </v>
   <v>       0.10000000       0.20000000      -0.40000000 </v>
   <v>      -0.20000000       0.30000000      -0.40000000 </v>
   <v>      -0.30000000       0.10000000      -0.40000000 </v>
   <v>       0.30000000       0.10000000       0.40000000 </v>
   <v>       0.40000000      -0.30000000       0.40000000 </v>
   <v>       0.10000000      -0.40000000       0.40000000 </v>
   <v>      -0.30000000      -0.10000000       0.40000000 </v>
   <v>      -0.40000000       0.30000000       0.40000000 </v>
   <v>      -0.10000000       0.40000000       0.40000000 </v>
   <v>      -0.10000000      -0.30000000      -0.40000000 </v>
   <v>       0.30000000      -0.40000000      -0.40000000 </v>
   <v>       0.40000000      -0.10000000      -0.40000000 </v>
   <v>       0.10000000       0.30000000      -0.40000000 </v>
   <v>      -0.30000000       0.40000000      -0.40000000 </v>
   <v>      -0.40000000       0.10000000      -0.40000000 </v>
   <v>       0.40000000       0.10000000       0.40000000 </v>
   <v>       0.50000000      -0.40000000       0.40000000 </v>
   <v>       0.10000000       0.50000000       0.40000000 </v>
   <v>      -0.40000000      -0.10000000       0.40000000 </v>
   <v>       0.50000000       0.40000000       0.40000000 </v>
   <v>      -0.10000000       0.50000000       0.40000000 </v>
   <v>      -0.10000000      -0.40000000      -0.40000000 </v>
   <v>       0.40000000       0.50000000      -0.40000000 </v>
   <v>       0.50000000      -0.10000000      -0.40000000 </v>
   <v>       0.10000000       0.40000000      -0.40000000 </v>
   <v>      -0.40000000       0.50000000      -0.40000000 </v>
   <v>       0.50000000       0.10000000      -0.40000000 </v>
   <v>       0.20000000       0.20000000       0.40000000 </v>
   <v>       0.40000000      -0.20000000       0.40000000 </v>
   <v>       0.20000000      -0.40000000       0.40000000 </v>
   <v>      -0.20000000      -0.20000000       0.40000000 </v>
   <v>      -0.40000000       0.20000000       0.40000000 </v>
   <v>      -0.20000000       0.40000000       0.40000000 </v>
   <v>       0.30000000       0.20000000       0.40000000 </v>
   <v>       0.50000000      -0.30000000       0.40000000 </v>
   <v>       0.20000000       0.50000000       0.40000000 </v>
   <v>      -0.30000000      -0.20000000       0.40000000 </v>
   <v>       0.50000000       0.30000000       0.40000000 </v>
   <v>      -0.20000000       0.50000000       0.40000000 </v>
   <v>      -0.20000000      -0.30000000      -0.40000000 </v>
   <v>       0.30000000       0.50000000      -0.40000000 </v>
   <v>       0.50000000      -0.20000000      -0.40000000 </v>
   <v>       0.20000000       0.30000000      -0.40000000 </v>
   <v>      -0.30000000       0.50000000      -0.40000000 </v>
   <v>       0.50000000       0.20000000      -0.40000000 </v>
   <v>       0.40000000       0.20000000       0.40000000 </v>
   <v>      -0.40000000      -0.40000000       0.40000000 </v>
   <v>       0.20000000       0.40000000       0.40000000 </v>
   <v>      -0.40000000      -0.20000000       0.40000000 </v>
   <v>       0.40000000       0.40000000       0.40000000 </v>
   <v>      -0.20000000      -0.40000000       0.40000000 </v>
   <v>       0.30000000       0.30000000       0.40000000 </v>
   <v>      -0.40000000      -0.30000000       0.40000000 </v>
   <v>       0.30000000       0.40000000       0.40000000 </v>
   <v>      -0.30000000      -0.30000000       0.40000000 </v>
   <v>       0.40000000       0.30000000       0.40000000 </v>
   <v>      -0.30000000      -0.40000000       0.40000000 </v>
  </varray>
  <varray name="weights" >
   <v>       0.00200000 </v>
   <v>       0.00400000 </v>
   <v>       0.00400000 </v>
   <v>       0.00400000 </v>
   <v>       0.00400000 </v>
   <v>       0.00400000 </v>
   <v>       0.00400000 </v>
   <v>       0.00400000 </v>
   <v>       0.00400000 </v>
   <v>       0.00400000 </v>
   <v>       0.00400000 </v>
   <v>       0.00400000 </v>
   <v>       0.00400000 </v>
   <v>       0.00200000 </v>
   <v>       0.00200000 </v>
   <v>       0.00200000 </v>
   <v>       0.00400000 </v>
   <v>       0.00400000 </v>
   <v>       0.00400000 </v>
   <v>       0.00400000 </v>
   <v>       0.00400000 </v>
   <v>       0.00400000 </v>
   <v>       0.00400000 </v>
   <v>       0.00400000 </v>
   <v>       0.00400000 </v>
   <v>       0.00400000 </v>
   <v>       0.00400000 </v>
   <v>       0.00400000 </v>
   <v>       0.00400000 </v>
   <v>       0.00400000 </v>
   <v>       0.00400000 </v>
   <v>       0.00400000 </v>
   <v>       0.00400000 </v>
   <v>       0.00400000 </v>
   <v>       0.00400000 </v>
   <v>       0.00400000 </v>
   <v>       0.00400000 </v>
   <v>       0.00400000 </v>
   <v>       0.00400000 </v>
   <v>       0.00400000 </v>
   <v>       0.00400000 </v>
   <v>       0.00400000 </v>
   <v>       0.00400000 </v>
   <v>       0.00400000 </v>
   <v>       0.00400000 </v>
   <v>       0.00400000 </v>
   <v>       0.00400000 </v>
   <v>       0.00400000 </v>
   <v>       0.00400000 </v>
   <v>       0.00400000 </v>
   <v>       0.00400000 </v>
   <v>       0.00400000 </v>
   <v>       0.00400000 </v>
   <v>       0.00400000 </v>
   <v>       0.00400000 </v>
   <v>       0.00400000 </v>
   <v>       0.00400000 </v>
   <v>       0.00400000 </v>
   <v>       0.00400000 </v>
   <v>       0.00400000 </v>
   <v>       0.00400000 </v>
   <v>       0.00400000 </v>
   <v>       0.00400000 </v>
   <v>       0.00400000 </v>
   <v>       0.00400000 </v>
   <v>       0.00400000 </v>
   <v>       0.00400000 </v>
   <v>       0.00400000 </v>
   <v>       0.00400000 </v>
   <v>       0.00400000 </v>
   <v>       0.00400000 </v>
   <v>       0.00400000 </v>
   <v>       0.00400000 </v>
   <v>       0.00400000 </v>
   <v>       0.00400000 </v>
   <v>       0.00400000 </v>
   <v>       0.00400000 </v>
   <v>       0.00400000 </v>
   <v>       0.00400000 </v>
   <v>       0.00400000 </v>
   <v>       0.00400000 </v>
   <v>       0.00400000 </v>
   <v>       0.00400000 </v>
   <v>       0.00400000 </v>
   <v>       0.00400000 </v>
   <v>       0.00400000 </v>
   <v>       0.00400000 </v>
   <v>       0.00400000 </v>
   <v>       0.00400000 </v>
   <v>       0.00400000 </v>
   <v>       0.00400000 </v>
   <v>       0.00400000 </v>
   <v>       0.00400000 </v>
   <v>       0.00400000 </v>
   <v>       0.00400000 </v>
   <v>       0.00400000 </v>
   <v>       0.00400000 </v>
   <v>       0.00400000 </v>
   <v>       0.00400000 </v>
   <v>       0.00400000 </v>
   <v>       0.00400000 </v>
   <v>       0.00400000 </v>
   <v>       0.00400000 </v>
   <v>       0.00400000 </v>
   <v>       0.00400000 </v>
   <v>       0.00400000 </v>
   <v>       0.00400000 </v>
   <v>       0.00400000 </v>
   <v>       0.00400000 </v>
   <v>       0.00400000 </v>
   <v>       0.00400000 </v>
   <v>       0.00400000 </v>
   <v>       0.00400000 </v>
   <v>       0.00400000 </v>
   <v>       0.00400000 </v>
   <v>       0.00400000 </v>
   <v>       0.00400000 </v>
   <v>       0.00400000 </v>
   <v>       0.00400000 </v>
   <v>       0.00400000 </v>
   <v>       0.00400000 </v>
   <v>       0.00400000 </v>
   <v>       0.00400000 </v>
   <v>       0.00400000 </v>
   <v>       0.00400000 </v>
   <v>       0.00400000 </v>
   <v>       0.00400000 </v>
   <v>       0.00400000 </v>
   <v>       0.00400000 </v>
   <v>       0.00400000 </v>
   <v>       0.00400000 </v>
   <v>       0.00400000 </v>
   <v>       0.00400000 </v>
   <v>       0.00400000 </v>
   <v>       0.00400000 </v>
   <v>       0.00400000 </v>
   <v>       0.00400000 </v>
   <v>       0.00400000 </v>
   <v>       0.00400000 </v>
   <v>       0.00400000 </v>
   <v>       0.00400000 </v>
   <v>       0.00400000 </v>
   <v>       0.00400000 </v>
   <v>       0.00400000 </v>
   <v>       0.00400000 </v>
   <v>       0.00400000 </v>
   <v>       0.00400000 </v>
   <v>       0.00400000 </v>
   <v>       0.00400000 </v>
   <v>       0.00400000 </v>
   <v>       0.00400000 </v>
   <v>       0.00400000 </v>
   <v>       0.00400000 </v>
   <v>       0.00400000 </v>
   <v>       0.00400000 </v>
   <v>       0.00400000 </v>
   <v>       0.00400000 </v>
   <v>       0.00400000 </v>
   <v>       0.00400000 </v>
   <v>       0.00400000 </v>
   <v>       0.00400000 </v>
   <v>       0.00400000 </v>
   <v>       0.00400000 </v>
   <v>       0.00400000 </v>
   <v>       0.00400000 </v>
   <v>       0.00400000 </v>
   <v>       0.00400000 </v>
   <v>       0.00400000 </v>
   <v>       0.00400000 </v>
   <v>       0.00400000 </v>
   <v>       0.00400000 </v>
   <v>       0.00400000 </v>
   <v>       0.00400000 </v>
   <v>       0.00400000 </v>
   <v>       0.00400000 </v>
   <v>       0.00400000 </v>
   <v>       0.00400000 </v>
   <v>       0.00400000 </v>
   <v>       0.00400000 </v>
   <v>       0.00400000 </v>
   <v>       0.00400000 </v>
   <v>       0.00400000 </v>
   <v>       0.00400000 </v>
   <v>       0.00400000 </v>
   <v>       0.00400000 </v>
   <v>       0.00400000 </v>
   <v>       0.00400000 </v>
   <v>       0.00400000 </v>
   <v>       0.00400000 </v>
   <v>       0.00400000 </v>
   <v>       0.00400000 </v>
   <v>       0.00400000 </v>
   <v>       0.00400000 </v>
   <v>       0.00400000 </v>
   <v>       0.00400000 </v>
   <v>       0.00400000 </v>
   <v>       0.00400000 </v>
   <v>       0.00400000 </v>
   <v>       0.00400000 </v>
   <v>       0.00400000 </v>
   <v>       0.00400000 </v>
   <v>       0.00400000 </v>
   <v>       0.00400000 </v>
   <v>       0.00400000 </v>
   <v>       0.00400000 </v>
   <v>       0.00400000 </v>
   <v>       0.00400000 </v>
   <v>       0.00400000 </v>
   <v>       0.00400000 </v>
   <v>       0.00400000 </v>
   <v>       0.00400000 </v>
   <v>       0.00400000 </v>
   <v>       0.00400000 </v>
   <v>       0.00400000 </v>
   <v>       0.00400000 </v>
   <v>       0.00400000 </v>
   <v>       0.00400000 </v>
   <v>       0.00400000 </v>
   <v>       0.00400000 </v>
   <v>       0.00400000 </v>
   <v>       0.00400000 </v>
   <v>       0.00400000 </v>
   <v>       0.00400000 </v>
   <v>       0.00400000 </v>
   <v>       0.00400000 </v>
   <v>       0.00400000 </v>
   <v>       0.00400000 </v>
   <v>       0.00400000 </v>
   <v>       0.00400000 </v>
   <v>       0.00400000 </v>
   <v>       0.00400000 </v>
   <v>       0.00400000 </v>
   <v>       0.00400000 </v>
   <v>       0.00400000 </v>
   <v>       0.00400000 </v>
   <v>       0.00400000 </v>
   <v>       0.00400000 </v>
   <v>       0.00400000 </v>
   <v>       0.00400000 </v>
   <v>       0.00400000 </v>
   <v>       0.00400000 </v>
   <v>       0.00400000 </v>
   <v>       0.00400000 </v>
   <v>       0.00400000 </v>
   <v>       0.00400000 </v>
   <v>       0.00400000 </v>
   <v>       0.00400000 </v>
   <v>       0.00400000 </v>
   <v>       0.00400000 </v>
   <v>       0.00400000 </v>
   <v>       0.00400000 </v>
   <v>       0.00400000 </v>
  </varray>
  <varray name="tetrahedronlist"  type="int" >
   <v type="int" >        2        2        4       17       59 </v>
   <v type="int" >        2        1        2        4       59 </v>
   <v type="int" >        2        1        2       53       59 </v>
   <v type="int" >        2        2       17       59       81 </v>
   <v type="int" >        2        2       54       59       81 </v>
   <v type="int" >        2        2       53       54       59 </v>
   <v type="int" >        2        5       17       20       81 </v>
   <v type="int" >        2        2        5       17       81 </v>
   <v type="int" >        2        2        5       54       81 </v>
   <v type="int" >        2        5       20       81       87 </v>
   <v type="int" >        2        5       60       81       87 </v>
   <v type="int" >        2        5       54       60       81 </v>
   <v type="int" >        2        8       20       26       87 </v>
   <v type="int" >        2        5        8       20       87 </v>
   <v type="int" >        2        5        8       60       87 </v>
   <v type="int" >        2        8       26       87       99 </v>
   <v type="int" >        2        8       66       87       99 </v>
   <v type="int" >        2        8       60       66       87 </v>
   <v type="int" >        2       11       26       32       99 </v>
   <v type="int" >        2        8       11       26       99 </v>
   <v type="int" >        2        8       11       66       99 </v>
   <v type="int" >        2       11       32       99      111 </v>
   <v type="int" >        2       11       72       99      111 </v>
   <v type="int" >        2       11       66       72       99 </v>
   <v type="int" >        2       14       32       37      111 </v>
   <v type="int" >        2       11       14       32      111 </v>
   <v type="int" >        2       11       14       72      111 </v>
   <v type="int" >        2       14       37      111      119 </v>
   <v type="int" >        2       14       78      111      119 </v>
   <v type="int" >        2       14       72       78      111 </v>
   <v type="int" >        2       11       31       37      119 </v>
   <v type="int" >        2       11       14       37      119 </v>
   <v type="int" >        2       11       14       78      119 </v>
   <v type="int" >        2       11       31      107      119 </v>
   <v type="int" >        2       11       75      107      119 </v>
   <v type="int" >        2       11       75       78      119 </v>
   <v type="int" >        2        8       25       31      107 </v>
   <v type="int" >        2        8       11       31      107 </v>
   <v type="int" >        2        8       11       75      107 </v>
   <v type="int" >        2        8       25       95      107 </v>
   <v type="int" >        2        8       69       95      107 </v>
   <v type="int" >        2        8       69       75      107 </v>
   <v type="int" >        2        5       18       25       95 </v>
   <v type="int" >        2        5        8       25       95 </v>
   <v type="int" >        2        5        8       69       95 </v>
   <v type="int" >        2        5       18       85       95 </v>
   <v type="int" >        2        5       63       85       95 </v>
   <v type="int" >        2        5       63       69       95 </v>
   <v type="int" >        2        2        3       18       85 </v>
   <v type="int" >        2        2        5       18       85 </v>
   <v type="int" >        2        2        5       63       85 </v>
   <v type="int" >        2        2        3       58       85 </v>
   <v type="int" >        2        2       57       58       85 </v>
   <v type="int" >        2        2       57       63       85 </v>
   <v type="int" >        2        1        3        4       58 </v>
   <v type="int" >        2        1        2        3       58 </v>
   <v type="int" >        2        1        2       57       58 </v>
   <v type="int" >        2        1        4       58       59 </v>
   <v type="int" >        2        1       53       58       59 </v>
   <v type="int" >        2        1       53       57       58 </v>
   <v type="int" >        2        7       17       23       65 </v>
   <v type="int" >        2        4        7       17       65 </v>
   <v type="int" >        2        4       17       59       65 </v>
   <v type="int" >        2       17       23       65       93 </v>
   <v type="int" >        2       17       65       81       93 </v>
   <v type="int" >        2       17       59       65       81 </v>
   <v type="int" >        2       20       23       38       93 </v>
   <v type="int" >        2       17       20       23       93 </v>
   <v type="int" >        2       17       20       81       93 </v>
   <v type="int" >        2       20       38       93      123 </v>
   <v type="int" >        2       20       87       93      123 </v>
   <v type="int" >        2       20       81       87       93 </v>
   <v type="int" >        2       26       38       41      123 </v>
   <v type="int" >        2       20       26       38      123 </v>
   <v type="int" >        2       20       26       87      123 </v>
   <v type="int" >        2       26       41      123      129 </v>
   <v type="int" >        2       26       99      123      129 </v>
   <v type="int" >        2       26       87       99      123 </v>
   <v type="int" >        2       32       41       47      129 </v>
   <v type="int" >        2       26       32       41      129 </v>
   <v type="int" >        2       26       32       99      129 </v>
   <v type="int" >        2       32       47      129      141 </v>
   <v type="int" >        2       32      111      129      141 </v>
   <v type="int" >        2       32       99      111      129 </v>
   <v type="int" >        2       37       46       47      141 </v>
   <v type="int" >        2       32       37       47      141 </v>
   <v type="int" >        2       32       37      111      141 </v>
   <v type="int" >        2       37       46      137      141 </v>
   <v type="int" >        2       37      119      137      141 </v>
   <v type="int" >        2       37      111      119      141 </v>
   <v type="int" >        2       31       39       46      137 </v>
   <v type="int" >        2       31       37       46      137 </v>
   <v type="int" >        2       31       37      119      137 </v>
   <v type="int" >        2       31       39      127      137 </v>
   <v type="int" >        2       31      107      127      137 </v>
   <v type="int" >        2       31      107      119      137 </v>
   <v type="int" >        2       21       25       39      127 </v>
   <v type="int" >        2       25       31       39      127 </v>
   <v type="int" >        2       25       31      107      127 </v>
   <v type="int" >        2       21       25       91      127 </v>
   <v type="int" >        2       25       91       95      127 </v>
   <v type="int" >        2       25       95      107      127 </v>
   <v type="int" >        2        6       18       21       91 </v>
   <v type="int" >        2       18       21       25       91 </v>
   <v type="int" >        2       18       25       91       95 </v>
   <v type="int" >        2        6       18       64       91 </v>
   <v type="int" >        2       18       64       85       91 </v>
   <v type="int" >        2       18       85       91       95 </v>
   <v type="int" >        2        3        6       19       64 </v>
   <v type="int" >        2        3        6       18       64 </v>
   <v type="int" >        2        3       18       64       85 </v>
   <v type="int" >        2        3       19       64       86 </v>
   <v type="int" >        2        3       58       64       86 </v>
   <v type="int" >        2        3       58       64       85 </v>
   <v type="int" >        2        4        7       19       86 </v>
   <v type="int" >        2        3        4       19       86 </v>
   <v type="int" >        2        3        4       58       86 </v>
   <v type="int" >        2        4        7       65       86 </v>
   <v type="int" >        2        4       59       65       86 </v>
   <v type="int" >        2        4       58       59       86 </v>
   <v type="int" >        2       10       23       29       71 </v>
   <v type="int" >        2        7       10       23       71 </v>
   <v type="int" >        2        7       23       65       71 </v>
   <v type="int" >        2       23       29       71      105 </v>
   <v type="int" >        2       23       71       93      105 </v>
   <v type="int" >        2       23       65       71       93 </v>
   <v type="int" >        2       29       38       44      105 </v>
   <v type="int" >        2       23       29       38      105 </v>
   <v type="int" >        2       23       38       93      105 </v>
   <v type="int" >        2       38       44      105      135 </v>
   <v type="int" >        2       38      105      123      135 </v>
   <v type="int" >        2       38       93      105      123 </v>
   <v type="int" >        2       41       44       50      135 </v>
   <v type="int" >        2       38       41       44      135 </v>
   <v type="int" >        2       38       41      123      135 </v>
   <v type="int" >        2       41       50      135      147 </v>
   <v type="int" >        2       41      129      135      147 </v>
   <v type="int" >        2       41      123      129      135 </v>
   <v type="int" >        2       47       50       51      147 </v>
   <v type="int" >        2       41       47       50      147 </v>
   <v type="int" >        2       41       47      129      147 </v>
   <v type="int" >        2       47       51      147      151 </v>
   <v type="int" >        2       47      141      147      151 </v>
   <v type="int" >        2       47      129      141      147 </v>
   <v type="int" >        2       42       46       51      151 </v>
   <v type="int" >        2       46       47       51      151 </v>
   <v type="int" >        2       46       47      141      151 </v>
   <v type="int" >        2       42       46      133      151 </v>
   <v type="int" >        2       46      133      137      151 </v>
   <v type="int" >        2       46      137      141      151 </v>
   <v type="int" >        2       27       39       42      133 </v>
   <v type="int" >        2       39       42       46      133 </v>
   <v type="int" >        2       39       46      133      137 </v>
   <v type="int" >        2       27       39      103      133 </v>
   <v type="int" >        2       39      103      127      133 </v>
   <v type="int" >        2       39      127      133      137 </v>
   <v type="int" >        2        9       21       27      103 </v>
   <v type="int" >        2       21       27       39      103 </v>
   <v type="int" >        2       21       39      103      127 </v>
   <v type="int" >        2        9       21       70      103 </v>
   <v type="int" >        2       21       70       91      103 </v>
   <v type="int" >        2       21       91      103      127 </v>
   <v type="int" >        2        6        9       24       70 </v>
   <v type="int" >        2        6        9       21       70 </v>
   <v type="int" >        2        6       21       70       91 </v>
   <v type="int" >        2        6       24       70       94 </v>
   <v type="int" >        2        6       64       70       94 </v>
   <v type="int" >        2        6       64       70       91 </v>
   <v type="int" >        2       19       22       24       94 </v>
   <v type="int" >        2        6       19       24       94 </v>
   <v type="int" >        2        6       19       64       94 </v>
   <v type="int" >        2       19       22       92       94 </v>
   <v type="int" >        2       19       86       92       94 </v>
   <v type="int" >        2       19       64       86       94 </v>
   <v type="int" >        2        7       10       22       92 </v>
   <v type="int" >        2        7       19       22       92 </v>
   <v type="int" >        2        7       19       86       92 </v>
   <v type="int" >        2        7       10       71       92 </v>
   <v type="int" >        2        7       65       71       92 </v>
   <v type="int" >        2        7       65       86       92 </v>
   <v type="int" >        2       13       29       35       77 </v>
   <v type="int" >        2       10       13       29       77 </v>
   <v type="int" >        2       10       29       71       77 </v>
   <v type="int" >        2       29       35       77      117 </v>
   <v type="int" >        2       29       77      105      117 </v>
   <v type="int" >        2       29       71       77      105 </v>
   <v type="int" >        2       35       44       49      117 </v>
   <v type="int" >        2       29       35       44      117 </v>
   <v type="int" >        2       29       44      105      117 </v>
   <v type="int" >        2       44       49      117      143 </v>
   <v type="int" >        2       44      117      135      143 </v>
   <v type="int" >        2       44      105      117      135 </v>
   <v type="int" >        2       49       50       52      143 </v>
   <v type="int" >        2       44       49       50      143 </v>
   <v type="int" >        2       44       50      135      143 </v>
   <v type="int" >        2       50       52      143      149 </v>
   <v type="int" >        2       50      143      147      149 </v>
   <v type="int" >        2       50      135      143      147 </v>
   <v type="int" >        2       48       51       52      149 </v>
   <v type="int" >        2       50       51       52      149 </v>
   <v type="int" >        2       50       51      147      149 </v>
   <v type="int" >        2       48       51      145      149 </v>
   <v type="int" >        2       51      145      149      151 </v>
   <v type="int" >        2       51      147      149      151 </v>
   <v type="int" >        2       33       42       48      145 </v>
   <v type="int" >        2       42       48       51      145 </v>
   <v type="int" >        2       42       51      145      151 </v>
   <v type="int" >        2       33       42      115      145 </v>
   <v type="int" >        2       42      115      133      145 </v>
   <v type="int" >        2       42      133      145      151 </v>
   <v type="int" >        2       12       27       33      115 </v>
   <v type="int" >        2       27       33       42      115 </v>
   <v type="int" >        2       27       42      115      133 </v>
   <v type="int" >        2       12       27       76      115 </v>
   <v type="int" >        2       27       76      103      115 </v>
   <v type="int" >        2       27      103      115      133 </v>
   <v type="int" >        2        9       12       30       76 </v>
   <v type="int" >        2        9       12       27       76 </v>
   <v type="int" >        2        9       27       76      103 </v>
   <v type="int" >        2        9       30       76      106 </v>
   <v type="int" >        2        9       70       76      106 </v>
   <v type="int" >        2        9       70       76      103 </v>
   <v type="int" >        2       24       30       40      106 </v>
   <v type="int" >        2        9       24       30      106 </v>
   <v type="int" >        2        9       24       70      106 </v>
   <v type="int" >        2       24       40      106      128 </v>
   <v type="int" >        2       24       94      106      128 </v>
   <v type="int" >        2       24       70       94      106 </v>
   <v type="int" >        2       22       28       40      128 </v>
   <v type="int" >        2       22       24       40      128 </v>
   <v type="int" >        2       22       24       94      128 </v>
   <v type="int" >        2       22       28      104      128 </v>
   <v type="int" >        2       22       92      104      128 </v>
   <v type="int" >        2       22       92       94      128 </v>
   <v type="int" >        2       10       13       28      104 </v>
   <v type="int" >        2       10       22       28      104 </v>
   <v type="int" >        2       10       22       92      104 </v>
   <v type="int" >        2       10       13       77      104 </v>
   <v type="int" >        2       10       71       77      104 </v>
   <v type="int" >        2       10       71       92      104 </v>
   <v type="int" >        2       16       34       35       80 </v>
   <v type="int" >        2       13       16       35       80 </v>
   <v type="int" >        2       13       35       77       80 </v>
   <v type="int" >        2       34       35       80      113 </v>
   <v type="int" >        2       35       80      113      117 </v>
   <v type="int" >        2       35       77       80      117 </v>
   <v type="int" >        2       34       43       49      113 </v>
   <v type="int" >        2       34       35       49      113 </v>
   <v type="int" >        2       35       49      113      117 </v>
   <v type="int" >        2       43       49      113      131 </v>
   <v type="int" >        2       49      113      131      143 </v>
   <v type="int" >        2       49      113      117      143 </v>
   <v type="int" >        2       43       45       52      131 </v>
   <v type="int" >        2       43       49       52      131 </v>
   <v type="int" >        2       49       52      131      143 </v>
   <v type="int" >        2       45       52      131      139 </v>
   <v type="int" >        2       52      131      139      149 </v>
   <v type="int" >        2       52      131      143      149 </v>
   <v type="int" >        2       36       45       48      139 </v>
   <v type="int" >        2       45       48       52      139 </v>
   <v type="int" >        2       48       52      139      149 </v>
   <v type="int" >        2       36       48      121      139 </v>
   <v type="int" >        2       48      121      139      145 </v>
   <v type="int" >        2       48      139      145      149 </v>
   <v type="int" >        2       15       33       36      121 </v>
   <v type="int" >        2       33       36       48      121 </v>
   <v type="int" >        2       33       48      121      145 </v>
   <v type="int" >        2       15       33       79      121 </v>
   <v type="int" >        2       33       79      115      121 </v>
   <v type="int" >        2       33      115      121      145 </v>
   <v type="int" >        2       12       15       36       79 </v>
   <v type="int" >        2       12       15       33       79 </v>
   <v type="int" >        2       12       33       79      115 </v>
   <v type="int" >        2       12       36       79      118 </v>
   <v type="int" >        2       12       76       79      118 </v>
   <v type="int" >        2       12       76       79      115 </v>
   <v type="int" >        2       30       36       45      118 </v>
   <v type="int" >        2       12       30       36      118 </v>
   <v type="int" >        2       12       30       76      118 </v>
   <v type="int" >        2       30       45      118      136 </v>
   <v type="int" >        2       30      106      118      136 </v>
   <v type="int" >        2       30       76      106      118 </v>
   <v type="int" >        2       40       43       45      136 </v>
   <v type="int" >        2       30       40       45      136 </v>
   <v type="int" >        2       30       40      106      136 </v>
   <v type="int" >        2       40       43      134      136 </v>
   <v type="int" >        2       40      128      134      136 </v>
   <v type="int" >        2       40      106      128      136 </v>
   <v type="int" >        2       28       34       43      134 </v>
   <v type="int" >        2       28       40       43      134 </v>
   <v type="int" >        2       28       40      128      134 </v>
   <v type="int" >        2       28       34      116      134 </v>
   <v type="int" >        2       28      104      116      134 </v>
   <v type="int" >        2       28      104      128      134 </v>
   <v type="int" >        2       13       16       34      116 </v>
   <v type="int" >        2       13       28       34      116 </v>
   <v type="int" >        2       13       28      104      116 </v>
   <v type="int" >        2       13       16       80      116 </v>
   <v type="int" >        2       13       77       80      116 </v>
   <v type="int" >        2       13       77      104      116 </v>
   <v type="int" >        2       13       28       34       74 </v>
   <v type="int" >        2       13       16       34       74 </v>
   <v type="int" >        2       16       34       74       80 </v>
   <v type="int" >        2       28       34       74      101 </v>
   <v type="int" >        2       34       74      101      113 </v>
   <v type="int" >        2       34       74       80      113 </v>
   <v type="int" >        2       28       40       43      101 </v>
   <v type="int" >        2       28       34       43      101 </v>
   <v type="int" >        2       34       43      101      113 </v>
   <v type="int" >        2       40       43      101      125 </v>
   <v type="int" >        2       43      101      125      131 </v>
   <v type="int" >        2       43      101      113      131 </v>
   <v type="int" >        2       30       40       45      125 </v>
   <v type="int" >        2       40       43       45      125 </v>
   <v type="int" >        2       43       45      125      131 </v>
   <v type="int" >        2       30       45      109      125 </v>
   <v type="int" >        2       45      109      125      139 </v>
   <v type="int" >        2       45      125      131      139 </v>
   <v type="int" >        2       12       30       36      109 </v>
   <v type="int" >        2       30       36       45      109 </v>
   <v type="int" >        2       36       45      109      139 </v>
   <v type="int" >        2       12       36       73      109 </v>
   <v type="int" >        2       36       73      109      121 </v>
   <v type="int" >        2       36      109      121      139 </v>
   <v type="int" >        2       12       15       33       73 </v>
   <v type="int" >        2       12       15       36       73 </v>
   <v type="int" >        2       15       36       73      121 </v>
   <v type="int" >        2       15       33       73      112 </v>
   <v type="int" >        2       15       73       79      112 </v>
   <v type="int" >        2       15       73       79      121 </v>
   <v type="int" >        2       33       36       48      112 </v>
   <v type="int" >        2       15       33       36      112 </v>
   <v type="int" >        2       15       36       79      112 </v>
   <v type="int" >        2       36       48      112      142 </v>
   <v type="int" >        2       36      112      118      142 </v>
   <v type="int" >        2       36       79      112      118 </v>
   <v type="int" >        2       45       48       52      142 </v>
   <v type="int" >        2       36       45       48      142 </v>
   <v type="int" >        2       36       45      118      142 </v>
   <v type="int" >        2       45       52      142      152 </v>
   <v type="int" >        2       45      136      142      152 </v>
   <v type="int" >        2       45      118      136      142 </v>
   <v type="int" >        2       43       49       52      152 </v>
   <v type="int" >        2       43       45       52      152 </v>
   <v type="int" >        2       43       45      136      152 </v>
   <v type="int" >        2       43       49      146      152 </v>
   <v type="int" >        2       43      134      146      152 </v>
   <v type="int" >        2       43      134      136      152 </v>
   <v type="int" >        2       34       35       49      146 </v>
   <v type="int" >        2       34       43       49      146 </v>
   <v type="int" >        2       34       43      134      146 </v>
   <v type="int" >        2       34       35      120      146 </v>
   <v type="int" >        2       34      116      120      146 </v>
   <v type="int" >        2       34      116      134      146 </v>
   <v type="int" >        2       13       16       35      120 </v>
   <v type="int" >        2       16       34       35      120 </v>
   <v type="int" >        2       16       34      116      120 </v>
   <v type="int" >        2       13       16       74      120 </v>
   <v type="int" >        2       16       74       80      120 </v>
   <v type="int" >        2       16       80      116      120 </v>
   <v type="int" >        2       10       22       28       68 </v>
   <v type="int" >        2       10       13       28       68 </v>
   <v type="int" >        2       13       28       68       74 </v>
   <v type="int" >        2       22       28       68       89 </v>
   <v type="int" >        2       28       68       89      101 </v>
   <v type="int" >        2       28       68       74      101 </v>
   <v type="int" >        2       22       24       40       89 </v>
   <v type="int" >        2       22       28       40       89 </v>
   <v type="int" >        2       28       40       89      101 </v>
   <v type="int" >        2       24       40       89       97 </v>
   <v type="int" >        2       40       89       97      125 </v>
   <v type="int" >        2       40       89      101      125 </v>
   <v type="int" >        2        9       24       30       97 </v>
   <v type="int" >        2       24       30       40       97 </v>
   <v type="int" >        2       30       40       97      125 </v>
   <v type="int" >        2        9       30       67       97 </v>
   <v type="int" >        2       30       67       97      109 </v>
   <v type="int" >        2       30       97      109      125 </v>
   <v type="int" >        2        9       12       27       67 </v>
   <v type="int" >        2        9       12       30       67 </v>
   <v type="int" >        2       12       30       67      109 </v>
   <v type="int" >        2       12       27       67      100 </v>
   <v type="int" >        2       12       67       73      100 </v>
   <v type="int" >        2       12       67       73      109 </v>
   <v type="int" >        2       27       33       42      100 </v>
   <v type="int" >        2       12       27       33      100 </v>
   <v type="int" >        2       12       33       73      100 </v>
   <v type="int" >        2       33       42      100      130 </v>
   <v type="int" >        2       33      100      112      130 </v>
   <v type="int" >        2       33       73      100      112 </v>
   <v type="int" >        2       42       48       51      130 </v>
   <v type="int" >        2       33       42       48      130 </v>
   <v type="int" >        2       33       48      112      130 </v>
   <v type="int" >        2       48       51      130      148 </v>
   <v type="int" >        2       48      130      142      148 </v>
   <v type="int" >        2       48      112      130      142 </v>
   <v type="int" >        2       50       51       52      148 </v>
   <v type="int" >        2       48       51       52      148 </v>
   <v type="int" >        2       48       52      142      148 </v>
   <v type="int" >        2       50       52      148      150 </v>
   <v type="int" >        2       52      148      150      152 </v>
   <v type="int" >        2       52      142      148      152 </v>
   <v type="int" >        2       44       49       50      150 </v>
   <v type="int" >        2       49       50       52      150 </v>
   <v type="int" >        2       49       52      150      152 </v>
   <v type="int" >        2       44       49      138      150 </v>
   <v type="int" >        2       49      138      146      150 </v>
   <v type="int" >        2       49      146      150      152 </v>
   <v type="int" >        2       29       35       44      138 </v>
   <v type="int" >        2       35       44       49      138 </v>
   <v type="int" >        2       35       49      138      146 </v>
   <v type="int" >        2       29       35      108      138 </v>
   <v type="int" >        2       35      108      120      138 </v>
   <v type="int" >        2       35      120      138      146 </v>
   <v type="int" >        2       10       13       29      108 </v>
   <v type="int" >        2       13       29       35      108 </v>
   <v type="int" >        2       13       35      108      120 </v>
   <v type="int" >        2       10       13       68      108 </v>
   <v type="int" >        2       13       68       74      108 </v>
   <v type="int" >        2       13       74      108      120 </v>
   <v type="int" >        2        7       19       22       62 </v>
   <v type="int" >        2        7       10       22       62 </v>
   <v type="int" >        2       10       22       62       68 </v>
   <v type="int" >        2       19       22       62       83 </v>
   <v type="int" >        2       22       62       83       89 </v>
   <v type="int" >        2       22       62       68       89 </v>
   <v type="int" >        2        6       19       24       83 </v>
   <v type="int" >        2       19       22       24       83 </v>
   <v type="int" >        2       22       24       83       89 </v>
   <v type="int" >        2        6       24       61       83 </v>
   <v type="int" >        2       24       61       83       97 </v>
   <v type="int" >        2       24       83       89       97 </v>
   <v type="int" >        2        6        9       21       61 </v>
   <v type="int" >        2        6        9       24       61 </v>
   <v type="int" >        2        9       24       61       97 </v>
   <v type="int" >        2        9       21       61       88 </v>
   <v type="int" >        2        9       61       67       88 </v>
   <v type="int" >        2        9       61       67       97 </v>
   <v type="int" >        2       21       27       39       88 </v>
   <v type="int" >        2        9       21       27       88 </v>
   <v type="int" >        2        9       27       67       88 </v>
   <v type="int" >        2       27       39       88      124 </v>
   <v type="int" >        2       27       88      100      124 </v>
   <v type="int" >        2       27       67       88      100 </v>
   <v type="int" >        2       39       42       46      124 </v>
   <v type="int" >        2       27       39       42      124 </v>
   <v type="int" >        2       27       42      100      124 </v>
   <v type="int" >        2       42       46      124      140 </v>
   <v type="int" >        2       42      124      130      140 </v>
   <v type="int" >        2       42      100      124      130 </v>
   <v type="int" >        2       46       47       51      140 </v>
   <v type="int" >        2       42       46       51      140 </v>
   <v type="int" >        2       42       51      130      140 </v>
   <v type="int" >        2       47       51      140      144 </v>
   <v type="int" >        2       51      140      144      148 </v>
   <v type="int" >        2       51      130      140      148 </v>
   <v type="int" >        2       41       47       50      144 </v>
   <v type="int" >        2       47       50       51      144 </v>
   <v type="int" >        2       50       51      144      148 </v>
   <v type="int" >        2       41       50      132      144 </v>
   <v type="int" >        2       50      132      144      150 </v>
   <v type="int" >        2       50      144      148      150 </v>
   <v type="int" >        2       38       41       44      132 </v>
   <v type="int" >        2       41       44       50      132 </v>
   <v type="int" >        2       44       50      132      150 </v>
   <v type="int" >        2       38       44      126      132 </v>
   <v type="int" >        2       44      126      132      138 </v>
   <v type="int" >        2       44      132      138      150 </v>
   <v type="int" >        2       23       29       38      126 </v>
   <v type="int" >        2       29       38       44      126 </v>
   <v type="int" >        2       29       44      126      138 </v>
   <v type="int" >        2       23       29       96      126 </v>
   <v type="int" >        2       29       96      108      126 </v>
   <v type="int" >        2       29      108      126      138 </v>
   <v type="int" >        2        7       10       23       96 </v>
   <v type="int" >        2       10       23       29       96 </v>
   <v type="int" >        2       10       29       96      108 </v>
   <v type="int" >        2        7       10       62       96 </v>
   <v type="int" >        2       10       62       68       96 </v>
   <v type="int" >        2       10       68       96      108 </v>
   <v type="int" >        2        3        4       19       56 </v>
   <v type="int" >        2        4        7       19       56 </v>
   <v type="int" >        2        7       19       56       62 </v>
   <v type="int" >        2        3       19       55       56 </v>
   <v type="int" >        2       19       55       56       83 </v>
   <v type="int" >        2       19       56       62       83 </v>
   <v type="int" >        2        3        6       18       55 </v>
   <v type="int" >        2        3        6       19       55 </v>
   <v type="int" >        2        6       19       55       83 </v>
   <v type="int" >        2        6       18       55       82 </v>
   <v type="int" >        2        6       55       61       82 </v>
   <v type="int" >        2        6       55       61       83 </v>
   <v type="int" >        2       18       21       25       82 </v>
   <v type="int" >        2        6       18       21       82 </v>
   <v type="int" >        2        6       21       61       82 </v>
   <v type="int" >        2       21       25       82       98 </v>
   <v type="int" >        2       21       82       88       98 </v>
   <v type="int" >        2       21       61       82       88 </v>
   <v type="int" >        2       25       31       39       98 </v>
   <v type="int" >        2       21       25       39       98 </v>
   <v type="int" >        2       21       39       88       98 </v>
   <v type="int" >        2       31       39       98      110 </v>
   <v type="int" >        2       39       98      110      124 </v>
   <v type="int" >        2       39       88       98      124 </v>
   <v type="int" >        2       31       37       46      110 </v>
   <v type="int" >        2       31       39       46      110 </v>
   <v type="int" >        2       39       46      110      124 </v>
   <v type="int" >        2       37       46      110      122 </v>
   <v type="int" >        2       46      110      122      140 </v>
   <v type="int" >        2       46      110      124      140 </v>
   <v type="int" >        2       32       37       47      122 </v>
   <v type="int" >        2       37       46       47      122 </v>
   <v type="int" >        2       46       47      122      140 </v>
   <v type="int" >        2       32       47      114      122 </v>
   <v type="int" >        2       47      114      122      144 </v>
   <v type="int" >        2       47      122      140      144 </v>
   <v type="int" >        2       26       32       41      114 </v>
   <v type="int" >        2       32       41       47      114 </v>
   <v type="int" >        2       41       47      114      144 </v>
   <v type="int" >        2       26       41      102      114 </v>
   <v type="int" >        2       41      102      114      132 </v>
   <v type="int" >        2       41      114      132      144 </v>
   <v type="int" >        2       20       26       38      102 </v>
   <v type="int" >        2       26       38       41      102 </v>
   <v type="int" >        2       38       41      102      132 </v>
   <v type="int" >        2       20       38       90      102 </v>
   <v type="int" >        2       38       90      102      126 </v>
   <v type="int" >        2       38      102      126      132 </v>
   <v type="int" >        2       17       20       23       90 </v>
   <v type="int" >        2       20       23       38       90 </v>
   <v type="int" >        2       23       38       90      126 </v>
   <v type="int" >        2       17       23       84       90 </v>
   <v type="int" >        2       23       84       90       96 </v>
   <v type="int" >        2       23       90       96      126 </v>
   <v type="int" >        2        4        7       17       84 </v>
   <v type="int" >        2        7       17       23       84 </v>
   <v type="int" >        2        7       23       84       96 </v>
   <v type="int" >        2        4        7       56       84 </v>
   <v type="int" >        2        7       56       62       84 </v>
   <v type="int" >        2        7       62       84       96 </v>
   <v type="int" >        2        1        2        3       53 </v>
   <v type="int" >        2        1        3        4       53 </v>
   <v type="int" >        2        3        4       53       56 </v>
   <v type="int" >        2        2        3       53       54 </v>
   <v type="int" >        2        3       53       54       55 </v>
   <v type="int" >        2        3       53       55       56 </v>
   <v type="int" >        2        2        5       18       54 </v>
   <v type="int" >        2        2        3       18       54 </v>
   <v type="int" >        2        3       18       54       55 </v>
   <v type="int" >        2        5       18       54       60 </v>
   <v type="int" >        2       18       54       60       82 </v>
   <v type="int" >        2       18       54       55       82 </v>
   <v type="int" >        2        5        8       25       60 </v>
   <v type="int" >        2        5       18       25       60 </v>
   <v type="int" >        2       18       25       60       82 </v>
   <v type="int" >        2        8       25       60       66 </v>
   <v type="int" >        2       25       60       66       98 </v>
   <v type="int" >        2       25       60       82       98 </v>
   <v type="int" >        2        8       11       31       66 </v>
   <v type="int" >        2        8       25       31       66 </v>
   <v type="int" >        2       25       31       66       98 </v>
   <v type="int" >        2       11       31       66       72 </v>
   <v type="int" >        2       31       66       72      110 </v>
   <v type="int" >        2       31       66       98      110 </v>
   <v type="int" >        2       11       14       37       72 </v>
   <v type="int" >        2       11       31       37       72 </v>
   <v type="int" >        2       31       37       72      110 </v>
   <v type="int" >        2       14       37       72       78 </v>
   <v type="int" >        2       37       72       78      122 </v>
   <v type="int" >        2       37       72      110      122 </v>
   <v type="int" >        2       11       14       32       78 </v>
   <v type="int" >        2       14       32       37       78 </v>
   <v type="int" >        2       32       37       78      122 </v>
   <v type="int" >        2       11       32       75       78 </v>
   <v type="int" >        2       32       75       78      114 </v>
   <v type="int" >        2       32       78      114      122 </v>
   <v type="int" >        2        8       11       26       75 </v>
   <v type="int" >        2       11       26       32       75 </v>
   <v type="int" >        2       26       32       75      114 </v>
   <v type="int" >        2        8       26       69       75 </v>
   <v type="int" >        2       26       69       75      102 </v>
   <v type="int" >        2       26       75      102      114 </v>
   <v type="int" >        2        5        8       20       69 </v>
   <v type="int" >        2        8       20       26       69 </v>
   <v type="int" >        2       20       26       69      102 </v>
   <v type="int" >        2        5       20       63       69 </v>
   <v type="int" >        2       20       63       69       90 </v>
   <v type="int" >        2       20       69       90      102 </v>
   <v type="int" >        2        2        5       17       63 </v>
   <v type="int" >        2        5       17       20       63 </v>
   <v type="int" >        2       17       20       63       90 </v>
   <v type="int" >        2        2       17       57       63 </v>
   <v type="int" >        2       17       57       63       84 </v>
   <v type="int" >        2       17       63       84       90 </v>
   <v type="int" >        2        1        2        4       57 </v>
   <v type="int" >        2        2        4       17       57 </v>
   <v type="int" >        2        4       17       57       84 </v>
   <v type="int" >        2        1        4       53       57 </v>
   <v type="int" >        2        4       53       56       57 </v>
   <v type="int" >        2        4       56       57       84 </v>
   <v type="int" >        2       54       59       81      159 </v>
   <v type="int" >        2       53       54       59      159 </v>
   <v type="int" >        2       53       54      153      159 </v>
   <v type="int" >        2       54       81      159      181 </v>
   <v type="int" >        2       54      154      159      181 </v>
   <v type="int" >        2       54      153      154      159 </v>
   <v type="int" >        2       60       81       87      181 </v>
   <v type="int" >        2       54       60       81      181 </v>
   <v type="int" >        2       54       60      154      181 </v>
   <v type="int" >        2       60       87      181      187 </v>
   <v type="int" >        2       60      160      181      187 </v>
   <v type="int" >        2       60      154      160      181 </v>
   <v type="int" >        2       66       87       99      187 </v>
   <v type="int" >        2       60       66       87      187 </v>
   <v type="int" >        2       60       66      160      187 </v>
   <v type="int" >        2       66       99      187      199 </v>
   <v type="int" >        2       66      166      187      199 </v>
   <v type="int" >        2       66      160      166      187 </v>
   <v type="int" >        2       72       99      111      199 </v>
   <v type="int" >        2       66       72       99      199 </v>
   <v type="int" >        2       66       72      166      199 </v>
   <v type="int" >        2       72      111      199      211 </v>
   <v type="int" >        2       72      172      199      211 </v>
   <v type="int" >        2       72      166      172      199 </v>
   <v type="int" >        2       78      111      119      211 </v>
   <v type="int" >        2       72       78      111      211 </v>
   <v type="int" >        2       72       78      172      211 </v>
   <v type="int" >        2       78      119      211      219 </v>
   <v type="int" >        2       78      178      211      219 </v>
   <v type="int" >        2       78      172      178      211 </v>
   <v type="int" >        2       75      107      119      219 </v>
   <v type="int" >        2       75       78      119      219 </v>
   <v type="int" >        2       75       78      178      219 </v>
   <v type="int" >        2       75      107      207      219 </v>
   <v type="int" >        2       75      175      207      219 </v>
   <v type="int" >        2       75      175      178      219 </v>
   <v type="int" >        2       69       95      107      207 </v>
   <v type="int" >        2       69       75      107      207 </v>
   <v type="int" >        2       69       75      175      207 </v>
   <v type="int" >        2       69       95      195      207 </v>
   <v type="int" >        2       69      169      195      207 </v>
   <v type="int" >        2       69      169      175      207 </v>
   <v type="int" >        2       63       85       95      195 </v>
   <v type="int" >        2       63       69       95      195 </v>
   <v type="int" >        2       63       69      169      195 </v>
   <v type="int" >        2       63       85      185      195 </v>
   <v type="int" >        2       63      163      185      195 </v>
   <v type="int" >        2       63      163      169      195 </v>
   <v type="int" >        2       57       58       85      185 </v>
   <v type="int" >        2       57       63       85      185 </v>
   <v type="int" >        2       57       63      163      185 </v>
   <v type="int" >        2       57       58      158      185 </v>
   <v type="int" >        2       57      157      158      185 </v>
   <v type="int" >        2       57      157      163      185 </v>
   <v type="int" >        2       53       58       59      158 </v>
   <v type="int" >        2       53       57       58      158 </v>
   <v type="int" >        2       53       57      157      158 </v>
   <v type="int" >        2       53       59      158      159 </v>
   <v type="int" >        2       53      153      158      159 </v>
   <v type="int" >        2       53      153      157      158 </v>
   <v type="int" >        2       65       81       93      165 </v>
   <v type="int" >        2       59       65       81      165 </v>
   <v type="int" >        2       59       81      159      165 </v>
   <v type="int" >        2       81       93      165      193 </v>
   <v type="int" >        2       81      165      181      193 </v>
   <v type="int" >        2       81      159      165      181 </v>
   <v type="int" >        2       87       93      123      193 </v>
   <v type="int" >        2       81       87       93      193 </v>
   <v type="int" >        2       81       87      181      193 </v>
   <v type="int" >        2       87      123      193      223 </v>
   <v type="int" >        2       87      187      193      223 </v>
   <v type="int" >        2       87      181      187      193 </v>
   <v type="int" >        2       99      123      129      223 </v>
   <v type="int" >        2       87       99      123      223 </v>
   <v type="int" >        2       87       99      187      223 </v>
   <v type="int" >        2       99      129      223      229 </v>
   <v type="int" >        2       99      199      223      229 </v>
   <v type="int" >        2       99      187      199      223 </v>
   <v type="int" >        2      111      129      141      229 </v>
   <v type="int" >        2       99      111      129      229 </v>
   <v type="int" >        2       99      111      199      229 </v>
   <v type="int" >        2      111      141      229      241 </v>
   <v type="int" >        2      111      211      229      241 </v>
   <v type="int" >        2      111      199      211      229 </v>
   <v type="int" >        2      119      137      141      241 </v>
   <v type="int" >        2      111      119      141      241 </v>
   <v type="int" >        2      111      119      211      241 </v>
   <v type="int" >        2      119      137      237      241 </v>
   <v type="int" >        2      119      219      237      241 </v>
   <v type="int" >        2      119      211      219      241 </v>
   <v type="int" >        2      107      127      137      237 </v>
   <v type="int" >        2      107      119      137      237 </v>
   <v type="int" >        2      107      119      219      237 </v>
   <v type="int" >        2      107      127      227      237 </v>
   <v type="int" >        2      107      207      227      237 </v>
   <v type="int" >        2      107      207      219      237 </v>
   <v type="int" >        2       91       95      127      227 </v>
   <v type="int" >        2       95      107      127      227 </v>
   <v type="int" >        2       95      107      207      227 </v>
   <v type="int" >        2       91       95      191      227 </v>
   <v type="int" >        2       95      191      195      227 </v>
   <v type="int" >        2       95      195      207      227 </v>
   <v type="int" >        2       64       85       91      191 </v>
   <v type="int" >        2       85       91       95      191 </v>
   <v type="int" >        2       85       95      191      195 </v>
   <v type="int" >        2       64       85      164      191 </v>
   <v type="int" >        2       85      164      185      191 </v>
   <v type="int" >        2       85      185      191      195 </v>
   <v type="int" >        2       58       64       86      164 </v>
   <v type="int" >        2       58       64       85      164 </v>
   <v type="int" >        2       58       85      164      185 </v>
   <v type="int" >        2       58       86      164      186 </v>
   <v type="int" >        2       58      158      164      186 </v>
   <v type="int" >        2       58      158      164      185 </v>
   <v type="int" >        2       59       65       86      186 </v>
   <v type="int" >        2       58       59       86      186 </v>
   <v type="int" >        2       58       59      158      186 </v>
   <v type="int" >        2       59       65      165      186 </v>
   <v type="int" >        2       59      159      165      186 </v>
   <v type="int" >        2       59      158      159      186 </v>
   <v type="int" >        2       71       93      105      171 </v>
   <v type="int" >        2       65       71       93      171 </v>
   <v type="int" >        2       65       93      165      171 </v>
   <v type="int" >        2       93      105      171      205 </v>
   <v type="int" >        2       93      171      193      205 </v>
   <v type="int" >        2       93      165      171      193 </v>
   <v type="int" >        2      105      123      135      205 </v>
   <v type="int" >        2       93      105      123      205 </v>
   <v type="int" >        2       93      123      193      205 </v>
   <v type="int" >        2      123      135      205      235 </v>
   <v type="int" >        2      123      205      223      235 </v>
   <v type="int" >        2      123      193      205      223 </v>
   <v type="int" >        2      129      135      147      235 </v>
   <v type="int" >        2      123      129      135      235 </v>
   <v type="int" >        2      123      129      223      235 </v>
   <v type="int" >        2      129      147      235      247 </v>
   <v type="int" >        2      129      229      235      247 </v>
   <v type="int" >        2      129      223      229      235 </v>
   <v type="int" >        2      141      147      151      247 </v>
   <v type="int" >        2      129      141      147      247 </v>
   <v type="int" >        2      129      141      229      247 </v>
   <v type="int" >        2      141      151      247      251 </v>
   <v type="int" >        2      141      241      247      251 </v>
   <v type="int" >        2      141      229      241      247 </v>
   <v type="int" >        2      133      137      151      251 </v>
   <v type="int" >        2      137      141      151      251 </v>
   <v type="int" >        2      137      141      241      251 </v>
   <v type="int" >        2      133      137      233      251 </v>
   <v type="int" >        2      137      233      237      251 </v>
   <v type="int" >        2      137      237      241      251 </v>
   <v type="int" >        2      103      127      133      233 </v>
   <v type="int" >        2      127      133      137      233 </v>
   <v type="int" >        2      127      137      233      237 </v>
   <v type="int" >        2      103      127      203      233 </v>
   <v type="int" >        2      127      203      227      233 </v>
   <v type="int" >        2      127      227      233      237 </v>
   <v type="int" >        2       70       91      103      203 </v>
   <v type="int" >        2       91      103      127      203 </v>
   <v type="int" >        2       91      127      203      227 </v>
   <v type="int" >        2       70       91      170      203 </v>
   <v type="int" >        2       91      170      191      203 </v>
   <v type="int" >        2       91      191      203      227 </v>
   <v type="int" >        2       64       70       94      170 </v>
   <v type="int" >        2       64       70       91      170 </v>
   <v type="int" >        2       64       91      170      191 </v>
   <v type="int" >        2       64       94      170      194 </v>
   <v type="int" >        2       64      164      170      194 </v>
   <v type="int" >        2       64      164      170      191 </v>
   <v type="int" >        2       86       92       94      194 </v>
[...]
        <r>  0.0000  0.0002  0.0000  0.0002  0.0832  0.1515  0.0014  0.0668  0.1725 </r>
        <r>  0.0000  0.0002  0.0000  0.0003  0.0000  0.0000  0.0000  0.0000  0.0000 </r>
        <r>  0.0000  0.0002  0.0000  0.0003  0.0000  0.0000  0.0000  0.0000  0.0000 </r>
       </set>
       <set comment="band 15">
        <r>  0.0000  0.0069  0.0014  0.0010  0.0008  0.0001  0.0000  0.0031  0.0000 </r>
        <r>  0.0066  0.0014  0.0003  0.0029  0.1395  0.0187  0.0184  0.0206  0.1093 </r>
        <r>  0.0066  0.0014  0.0003  0.0029  0.1395  0.0187  0.0184  0.0206  0.1093 </r>
        <r>  0.0865  0.0004  0.0001  0.0013  0.0000  0.0000  0.0000  0.0000  0.0000 </r>
        <r>  0.0865  0.0004  0.0001  0.0013  0.0000  0.0000  0.0000  0.0000  0.0000 </r>
       </set>
       <set comment="band 16">
        <r>  0.0001  0.0007  0.0000  0.0169  0.0001  0.0022  0.0000  0.0002  0.0008 </r>
        <r>  0.0017  0.0021  0.0009  0.0033  0.1243  0.0135  0.0402  0.0332  0.0704 </r>
        <r>  0.0017  0.0021  0.0009  0.0033  0.1243  0.0135  0.0402  0.0332  0.0704 </r>
        <r>  0.1065  0.0004  0.0002  0.0003  0.0000  0.0000  0.0000  0.0000  0.0000 </r>
        <r>  0.1065  0.0004  0.0002  0.0003  0.0000  0.0000  0.0000  0.0000  0.0000 </r>
       </set>
       <set comment="band 17">
        <r>  0.0013  0.0001  0.0000  0.0241  0.0003  0.0097  0.0002  0.0012  0.0015 </r>
        <r>  0.1118  0.0017  0.0026  0.0011  0.0008  0.0020  0.0004  0.0064  0.0000 </r>
        <r>  0.1118  0.0017  0.0026  0.0011  0.0008  0.0020  0.0004  0.0064  0.0000 </r>
        <r>  0.0049  0.0224  0.0078  0.0491  0.0000  0.0000  0.0000  0.0000  0.0000 </r>
        <r>  0.0049  0.0224  0.0078  0.0491  0.0000  0.0000  0.0000  0.0000  0.0000 </r>
       </set>
       <set comment="band 18">
        <r>  0.0000  0.0280  0.0014  0.0007  0.0063  0.0006  0.0000  0.0037  0.0003 </r>
        <r>  0.1110  0.0001  0.0015  0.0008  0.0002  0.0052  0.0004  0.0086  0.0001 </r>
        <r>  0.1110  0.0001  0.0015  0.0008  0.0002  0.0052  0.0004  0.0086  0.0001 </r>
        <r>  0.0146  0.0196  0.0130  0.0434  0.0000  0.0000  0.0000  0.0000  0.0000 </r>
        <r>  0.0146  0.0196  0.0130  0.0434  0.0000  0.0000  0.0000  0.0000  0.0000 </r>
       </set>
       <set comment="band 19">
        <r>  0.0031  0.0003  0.0242  0.0008  0.0000  0.0002  0.0018  0.0029  0.0000 </r>
        <r>  0.0018  0.0287  0.0004  0.0242  0.0001  0.0005  0.0000  0.0003  0.0004 </r>
        <r>  0.0018  0.0287  0.0004  0.0242  0.0001  0.0005  0.0000  0.0003  0.0004 </r>
        <r>  0.0001  0.0759  0.0002  0.0299  0.0000  0.0000  0.0000  0.0000  0.0000 </r>
        <r>  0.0001  0.0759  0.0002  0.0299  0.0000  0.0000  0.0000  0.0000  0.0000 </r>
       </set>
       <set comment="band 20">
        <r>  0.0163  0.0003  0.0027  0.0001  0.0027  0.0001  0.0080  0.0137  0.0002 </r>
        <r>  0.0006  0.0099  0.0064  0.0133  0.0007  0.0122  0.0012  0.0067  0.0004 </r>
        <r>  0.0006  0.0099  0.0064  0.0133  0.0007  0.0122  0.0012  0.0067  0.0004 </r>
        <r>  0.0003  0.0615  0.0271  0.0396  0.0000  0.0000  0.0000  0.0000  0.0000 </r>
        <r>  0.0003  0.0615  0.0271  0.0396  0.0000  0.0000  0.0000  0.0000  0.0000 </r>
       </set>
       <set comment="band 21">
        <r>  0.0028  0.0006  0.0061  0.0061  0.0059  0.0001  0.0025  0.0270  0.0011 </r>
        <r>  0.0006  0.0094  0.0203  0.0040  0.0022  0.0038  0.0039  0.0030  0.0015 </r>
        <r>  0.0006  0.0094  0.0203  0.0040  0.0022  0.0038  0.0039  0.0030  0.0015 </r>
        <r>  0.0006  0.0203  0.0832  0.0301  0.0000  0.0000  0.0000  0.0000  0.0000 </r>
        <r>  0.0006  0.0203  0.0832  0.0301  0.0000  0.0000  0.0000  0.0000  0.0000 </r>
       </set>
       <set comment="band 22">
        <r>  0.0006  0.0033  0.0000  0.0059  0.0031  0.0342  0.0001  0.0000  0.0110 </r>
        <r>  0.0006  0.0037  0.0209  0.0024  0.0020  0.0007  0.0081  0.0034  0.0020 </r>
        <r>  0.0006  0.0037  0.0209  0.0024  0.0020  0.0007  0.0081  0.0034  0.0020 </r>
        <r>  0.0004  0.0133  0.1232  0.0053  0.0000  0.0000  0.0000  0.0000  0.0000 </r>
        <r>  0.0004  0.0133  0.1232  0.0053  0.0000  0.0000  0.0000  0.0000  0.0000 </r>
       </set>
       <set comment="band 23">
        <r>  0.0000  0.0182  0.0002  0.0001  0.1688  0.0061  0.0003  0.0260  0.0026 </r>
        <r>  0.0219  0.0001  0.0192  0.0001  0.0001  0.0019  0.0056  0.0036  0.0002 </r>
        <r>  0.0219  0.0001  0.0192  0.0001  0.0001  0.0019  0.0056  0.0036  0.0002 </r>
        <r>  0.0107  0.0047  0.0055  0.0022  0.0000  0.0000  0.0000  0.0000  0.0000 </r>
        <r>  0.0107  0.0047  0.0055  0.0022  0.0000  0.0000  0.0000  0.0000  0.0000 </r>
       </set>
       <set comment="band 24">
        <r>  0.0036  0.0000  0.0000  0.0267  0.0017  0.0431  0.0193  0.0070  0.1042 </r>
        <r>  0.0303  0.0002  0.0195  0.0002  0.0003  0.0033  0.0052  0.0041  0.0001 </r>
        <r>  0.0303  0.0002  0.0195  0.0002  0.0003  0.0033  0.0052  0.0041  0.0001 </r>
        <r>  0.0093  0.0021  0.0040  0.0005  0.0000  0.0000  0.0000  0.0000  0.0000 </r>
        <r>  0.0093  0.0021  0.0040  0.0005  0.0000  0.0000  0.0000  0.0000  0.0000 </r>
       </set>
       <set comment="band 25">
        <r>  0.0000  0.0001  0.0003  0.0044  0.0052  0.0342  0.0802  0.0076  0.0340 </r>
        <r>  0.0693  0.0007  0.0005  0.0002  0.0016  0.0005  0.0007  0.0009  0.0020 </r>
        <r>  0.0693  0.0007  0.0005  0.0002  0.0016  0.0005  0.0007  0.0009  0.0020 </r>
        <r>  0.0015  0.0457  0.0235  0.0091  0.0000  0.0000  0.0000  0.0000  0.0000 </r>
        <r>  0.0015  0.0457  0.0235  0.0091  0.0000  0.0000  0.0000  0.0000  0.0000 </r>
       </set>
       <set comment="band 26">
        <r>  0.0085  0.0005  0.0037  0.0007  0.0000  0.0005  0.0157  0.0304  0.0309 </r>
        <r>  0.0172  0.0020  0.0022  0.0105  0.0042  0.0102  0.0006  0.0056  0.0025 </r>
        <r>  0.0172  0.0020  0.0022  0.0105  0.0042  0.0102  0.0006  0.0056  0.0025 </r>
        <r>  0.0020  0.0294  0.0035  0.0310  0.0000  0.0000  0.0000  0.0000  0.0000 </r>
        <r>  0.0020  0.0294  0.0035  0.0310  0.0000  0.0000  0.0000  0.0000  0.0000 </r>
       </set>
      </set>
      <set comment="kpoint 252">
       <set comment="band 1">
        <r>  0.9780  0.0000  0.0000  0.0000  0.0000  0.0000  0.0000  0.0000  0.0000 </r>
        <r>  0.0000  0.0000  0.0000  0.0000  0.0000  0.0000  0.0000  0.0000  0.0000 </r>
        <r>  0.0000  0.0000  0.0000  0.0000  0.0000  0.0000  0.0000  0.0000  0.0000 </r>
        <r>  0.0000  0.0000  0.0000  0.0000  0.0000  0.0000  0.0000  0.0000  0.0000 </r>
        <r>  0.0000  0.0000  0.0000  0.0000  0.0000  0.0000  0.0000  0.0000  0.0000 </r>
       </set>
       <set comment="band 2">
        <r>  0.0000  0.6171  0.0000  0.2065  0.0002  0.0000  0.0000  0.0000  0.0001 </r>
        <r>  0.0002  0.0001  0.0002  0.0001  0.0003  0.0005  0.0000  0.0006  0.0003 </r>
        <r>  0.0002  0.0001  0.0002  0.0001  0.0003  0.0005  0.0000  0.0006  0.0003 </r>
        <r>  0.0120  0.0002  0.0006  0.0003  0.0000  0.0000  0.0000  0.0000  0.0000 </r>
        <r>  0.0120  0.0002  0.0006  0.0003  0.0000  0.0000  0.0000  0.0000  0.0000 </r>
       </set>
       <set comment="band 3">
        <r>  0.0000  0.2104  0.0106  0.6274  0.0001  0.0001  0.0000  0.0000  0.0003 </r>
        <r>  0.0001  0.0002  0.0001  0.0001  0.0002  0.0008  0.0000  0.0005  0.0002 </r>
        <r>  0.0001  0.0002  0.0001  0.0001  0.0002  0.0008  0.0000  0.0005  0.0002 </r>
        <r>  0.0089  0.0002  0.0004  0.0003  0.0000  0.0000  0.0000  0.0000  0.0000 </r>
        <r>  0.0089  0.0002  0.0004  0.0003  0.0000  0.0000  0.0000  0.0000  0.0000 </r>
       </set>
       <set comment="band 4">
        <r>  0.0000  0.0028  0.8800  0.0094  0.0000  0.0000  0.0000  0.0000  0.0000 </r>
        <r>  0.0001  0.0001  0.0000  0.0001  0.0002  0.0008  0.0000  0.0007  0.0002 </r>
        <r>  0.0001  0.0001  0.0000  0.0001  0.0002  0.0008  0.0000  0.0007  0.0002 </r>
        <r>  0.0002  0.0008  0.0000  0.0005  0.0000  0.0000  0.0000  0.0000  0.0000 </r>
        <r>  0.0002  0.0008  0.0000  0.0005  0.0000  0.0000  0.0000  0.0000  0.0000 </r>
       </set>
       <set comment="band 5">
        <r>  0.0000  0.0089  0.0022  0.0241  0.0001  0.0018  0.0000  0.0008  0.0004 </r>
        <r>  0.0045  0.0029  0.0010  0.0024  0.0504  0.0127  0.0327  0.0103  0.0664 </r>
        <r>  0.0045  0.0029  0.0010  0.0024  0.0504  0.0127  0.0327  0.0103  0.0664 </r>
        <r>  0.1461  0.0000  0.0013  0.0000  0.0000  0.0000  0.0000  0.0000  0.0000 </r>
        <r>  0.1461  0.0000  0.0013  0.0000  0.0000  0.0000  0.0000  0.0000  0.0000 </r>
       </set>
       <set comment="band 6">
        <r>  0.0001  0.0315  0.0000  0.0120  0.0002  0.0006  0.0000  0.0010  0.0001 </r>
        <r>  0.0016  0.0029  0.0012  0.0022  0.0528  0.0137  0.0532  0.0108  0.0636 </r>
        <r>  0.0016  0.0029  0.0012  0.0022  0.0528  0.0137  0.0532  0.0108  0.0636 </r>
        <r>  0.1356  0.0000  0.0015  0.0000  0.0000  0.0000  0.0000  0.0000  0.0000 </r>
        <r>  0.1356  0.0000  0.0015  0.0000  0.0000  0.0000  0.0000  0.0000  0.0000 </r>
       </set>
       <set comment="band 7">
        <r>  0.0000  0.0000  0.0051  0.0000  0.0000  0.0000  0.0000  0.0000  0.0000 </r>
        <r>  0.0000  0.0001  0.0000  0.0001  0.0187  0.1843  0.0002  0.2520  0.0104 </r>
        <r>  0.0000  0.0001  0.0000  0.0001  0.0187  0.1843  0.0002  0.2520  0.0104 </r>
        <r>  0.0000  0.0001  0.0000  0.0001  0.0000  0.0000  0.0000  0.0000  0.0000 </r>
        <r>  0.0000  0.0001  0.0000  0.0001  0.0000  0.0000  0.0000  0.0000  0.0000 </r>
       </set>
       <set comment="band 8">
        <r>  0.0000  0.0000  0.0001  0.0001  0.0000  0.0000  0.0000  0.0000  0.0000 </r>
        <r>  0.0002  0.0000  0.0000  0.0000  0.2405  0.0237  0.0002  0.0149  0.1877 </r>
        <r>  0.0002  0.0000  0.0000  0.0000  0.2405  0.0237  0.0002  0.0149  0.1877 </r>
        <r>  0.0001  0.0004  0.0000  0.0008  0.0000  0.0000  0.0000  0.0000  0.0000 </r>
        <r>  0.0001  0.0004  0.0000  0.0008  0.0000  0.0000  0.0000  0.0000  0.0000 </r>
       </set>
       <set comment="band 9">
        <r>  0.0000  0.0035  0.0001  0.0005  0.0000  0.0000  0.0000  0.0003  0.0000 </r>
        <r>  0.0015  0.0000  0.0003  0.0000  0.0165  0.2333  0.0349  0.1552  0.0216 </r>
        <r>  0.0015  0.0000  0.0003  0.0000  0.0165  0.2333  0.0349  0.1552  0.0216 </r>
        <r>  0.0006  0.0000  0.0012  0.0000  0.0000  0.0000  0.0000  0.0000  0.0000 </r>
        <r>  0.0006  0.0000  0.0012  0.0000  0.0000  0.0000  0.0000  0.0000  0.0000 </r>
       </set>
       <set comment="band 10">
        <r>  0.0000  0.0007  0.0002  0.0034  0.0000  0.0002  0.0000  0.0000  0.0000 </r>
        <r>  0.0017  0.0000  0.0003  0.0000  0.0185  0.2223  0.0496  0.1481  0.0243 </r>
        <r>  0.0017  0.0000  0.0003  0.0000  0.0185  0.2223  0.0496  0.1481  0.0243 </r>
        <r>  0.0005  0.0001  0.0012  0.0000  0.0000  0.0000  0.0000  0.0000  0.0000 </r>
        <r>  0.0005  0.0001  0.0012  0.0000  0.0000  0.0000  0.0000  0.0000  0.0000 </r>
       </set>
       <set comment="band 11">
        <r>  0.0002  0.0000  0.0004  0.0001  0.0000  0.0000  0.0000  0.0000  0.0000 </r>
        <r>  0.0000  0.0002  0.0000  0.0002  0.1261  0.0911  0.0030  0.1577  0.0886 </r>
        <r>  0.0000  0.0002  0.0000  0.0002  0.1261  0.0911  0.0030  0.1577  0.0886 </r>
        <r>  0.0001  0.0017  0.0000  0.0022  0.0000  0.0000  0.0000  0.0000  0.0000 </r>
        <r>  0.0001  0.0017  0.0000  0.0022  0.0000  0.0000  0.0000  0.0000  0.0000 </r>
       </set>
       <set comment="band 12">
        <r>  0.0000  0.0008  0.0000  0.0003  0.0001  0.0000  0.0000  0.0000  0.0000 </r>
        <r>  0.0005  0.0000  0.0000  0.0000  0.0439  0.0018  0.3330  0.0024  0.0891 </r>
        <r>  0.0005  0.0000  0.0000  0.0000  0.0439  0.0018  0.3330  0.0024  0.0891 </r>
        <r>  0.0014  0.0006  0.0003  0.0005  0.0000  0.0000  0.0000  0.0000  0.0000 </r>
        <r>  0.0014  0.0006  0.0003  0.0005  0.0000  0.0000  0.0000  0.0000  0.0000 </r>
       </set>
       <set comment="band 13">
        <r>  0.0000  0.0001  0.0000  0.0002  0.0000  0.0000  0.0000  0.0000  0.0001 </r>
        <r>  0.0008  0.0000  0.0000  0.0000  0.0310  0.0109  0.3726  0.0077  0.0480 </r>
        <r>  0.0008  0.0000  0.0000  0.0000  0.0310  0.0109  0.3726  0.0077  0.0480 </r>
        <r>  0.0015  0.0006  0.0001  0.0005  0.0000  0.0000  0.0000  0.0000  0.0000 </r>
        <r>  0.0015  0.0006  0.0001  0.0005  0.0000  0.0000  0.0000  0.0000  0.0000 </r>
       </set>
       <set comment="band 14">
        <r>  0.0004  0.0001  0.0007  0.0000  0.0000  0.0000  0.0002  0.0000  0.0000 </r>
        <r>  0.0000  0.0002  0.0000  0.0002  0.1488  0.0850  0.0014  0.1333  0.1069 </r>
        <r>  0.0000  0.0002  0.0000  0.0002  0.1488  0.0850  0.0014  0.1333  0.1069 </r>
        <r>  0.0000  0.0002  0.0000  0.0002  0.0000  0.0000  0.0000  0.0000  0.0000 </r>
        <r>  0.0000  0.0002  0.0000  0.0002  0.0000  0.0000  0.0000  0.0000  0.0000 </r>
       </set>
       <set comment="band 15">
        <r>  0.0000  0.0002  0.0014  0.0077  0.0001  0.0027  0.0000  0.0004  0.0007 </r>
        <r>  0.0066  0.0026  0.0003  0.0017  0.1187  0.0209  0.0184  0.0185  0.1301 </r>
        <r>  0.0066  0.0026  0.0003  0.0017  0.1187  0.0209  0.0184  0.0185  0.1301 </r>
        <r>  0.0865  0.0010  0.0001  0.0007  0.0000  0.0000  0.0000  0.0000  0.0000 </r>
        <r>  0.0865  0.0010  0.0001  0.0007  0.0000  0.0000  0.0000  0.0000  0.0000 </r>
       </set>
       <set comment="band 16">
        <r>  0.0001  0.0158  0.0000  0.0018  0.0008  0.0001  0.0000  0.0023  0.0001 </r>
        <r>  0.0017  0.0030  0.0009  0.0025  0.0830  0.0282  0.0402  0.0185  0.1117 </r>
        <r>  0.0017  0.0030  0.0009  0.0025  0.0830  0.0282  0.0402  0.0185  0.1117 </r>
        <r>  0.1065  0.0003  0.0002  0.0004  0.0000  0.0000  0.0000  0.0000  0.0000 </r>
        <r>  0.1065  0.0003  0.0002  0.0004  0.0000  0.0000  0.0000  0.0000  0.0000 </r>
       </set>
       <set comment="band 17">
        <r>  0.0013  0.0197  0.0000  0.0045  0.0017  0.0063  0.0002  0.0046  0.0000 </r>
        <r>  0.1118  0.0019  0.0026  0.0009  0.0004  0.0047  0.0004  0.0037  0.0005 </r>
        <r>  0.1118  0.0019  0.0026  0.0009  0.0004  0.0047  0.0004  0.0037  0.0005 </r>
        <r>  0.0049  0.0458  0.0078  0.0258  0.0000  0.0000  0.0000  0.0000  0.0000 </r>
        <r>  0.0049  0.0458  0.0078  0.0258  0.0000  0.0000  0.0000  0.0000  0.0000 </r>
       </set>
       <set comment="band 18">
        <r>  0.0000  0.0037  0.0014  0.0250  0.0006  0.0016  0.0000  0.0028  0.0059 </r>
        <r>  0.1110  0.0004  0.0015  0.0005  0.0000  0.0077  0.0004  0.0061  0.0002 </r>
        <r>  0.1110  0.0004  0.0015  0.0005  0.0000  0.0077  0.0004  0.0061  0.0002 </r>
        <r>  0.0146  0.0363  0.0130  0.0267  0.0000  0.0000  0.0000  0.0000  0.0000 </r>
        <r>  0.0146  0.0363  0.0130  0.0267  0.0000  0.0000  0.0000  0.0000  0.0000 </r>
       </set>
       <set comment="band 19">
        <r>  0.0031  0.0011  0.0242  0.0000  0.0000  0.0016  0.0018  0.0015  0.0000 </r>
        <r>  0.0018  0.0249  0.0004  0.0280  0.0003  0.0004  0.0000  0.0003  0.0002 </r>
        <r>  0.0018  0.0249  0.0004  0.0280  0.0003  0.0004  0.0000  0.0003  0.0002 </r>
        <r>  0.0001  0.0390  0.0002  0.0668  0.0000  0.0000  0.0000  0.0000  0.0000 </r>
        <r>  0.0001  0.0390  0.0002  0.0668  0.0000  0.0000  0.0000  0.0000  0.0000 </r>
       </set>
       <set comment="band 20">
        <r>  0.0163  0.0003  0.0027  0.0001  0.0002  0.0091  0.0080  0.0047  0.0027 </r>
        <r>  0.0006  0.0077  0.0064  0.0155  0.0008  0.0110  0.0012  0.0079  0.0003 </r>
        <r>  0.0006  0.0077  0.0064  0.0155  0.0008  0.0110  0.0012  0.0079  0.0003 </r>
        <r>  0.0003  0.0250  0.0271  0.0762  0.0000  0.0000  0.0000  0.0000  0.0000 </r>
        <r>  0.0003  0.0250  0.0271  0.0762  0.0000  0.0000  0.0000  0.0000  0.0000 </r>
       </set>
       <set comment="band 21">
        <r>  0.0028  0.0030  0.0061  0.0037  0.0001  0.0189  0.0025  0.0081  0.0069 </r>
        <r>  0.0006  0.0106  0.0203  0.0028  0.0014  0.0007  0.0039  0.0062  0.0023 </r>
        <r>  0.0006  0.0106  0.0203  0.0028  0.0014  0.0007  0.0039  0.0062  0.0023 </r>
        <r>  0.0006  0.0481  0.0832  0.0024  0.0000  0.0000  0.0000  0.0000  0.0000 </r>
        <r>  0.0006  0.0481  0.0832  0.0024  0.0000  0.0000  0.0000  0.0000  0.0000 </r>
       </set>
       <set comment="band 22">
        <r>  0.0006  0.0091  0.0000  0.0001  0.0140  0.0089  0.0001  0.0253  0.0000 </r>
        <r>  0.0006  0.0023  0.0209  0.0038  0.0020  0.0028  0.0081  0.0014  0.0020 </r>
        <r>  0.0006  0.0023  0.0209  0.0038  0.0020  0.0028  0.0081  0.0014  0.0020 </r>
        <r>  0.0004  0.0077  0.1232  0.0108  0.0000  0.0000  0.0000  0.0000  0.0000 </r>
        <r>  0.0004  0.0077  0.1232  0.0108  0.0000  0.0000  0.0000  0.0000  0.0000 </r>
       </set>
       <set comment="band 23">
        <r>  0.0000  0.0035  0.0002  0.0148  0.0259  0.0101  0.0003  0.0221  0.1456 </r>
        <r>  0.0219  0.0001  0.0192  0.0001  0.0003  0.0032  0.0056  0.0023  0.0000 </r>
        <r>  0.0219  0.0001  0.0192  0.0001  0.0003  0.0032  0.0056  0.0023  0.0000 </r>
        <r>  0.0107  0.0037  0.0055  0.0032  0.0000  0.0000  0.0000  0.0000  0.0000 </r>
        <r>  0.0107  0.0037  0.0055  0.0032  0.0000  0.0000  0.0000  0.0000  0.0000 </r>
       </set>
       <set comment="band 24">
        <r>  0.0036  0.0195  0.0000  0.0073  0.0900  0.0311  0.0193  0.0190  0.0159 </r>
        <r>  0.0303  0.0004  0.0195  0.0000  0.0001  0.0047  0.0052  0.0026  0.0003 </r>
        <r>  0.0303  0.0004  0.0195  0.0000  0.0001  0.0047  0.0052  0.0026  0.0003 </r>
        <r>  0.0093  0.0012  0.0040  0.0014  0.0000  0.0000  0.0000  0.0000  0.0000 </r>
        <r>  0.0093  0.0012  0.0040  0.0014  0.0000  0.0000  0.0000  0.0000  0.0000 </r>
       </set>
       <set comment="band 25">
        <r>  0.0000  0.0040  0.0003  0.0006  0.0383  0.0283  0.0802  0.0136  0.0009 </r>
        <r>  0.0693  0.0006  0.0005  0.0003  0.0020  0.0003  0.0007  0.0011  0.0017 </r>
        <r>  0.0693  0.0006  0.0005  0.0003  0.0020  0.0003  0.0007  0.0011  0.0017 </r>
        <r>  0.0015  0.0132  0.0235  0.0416  0.0000  0.0000  0.0000  0.0000  0.0000 </r>
        <r>  0.0015  0.0132  0.0235  0.0416  0.0000  0.0000  0.0000  0.0000  0.0000 </r>
       </set>
       <set comment="band 26">
        <r>  0.0085  0.0012  0.0037  0.0000  0.0236  0.0262  0.0157  0.0047  0.0073 </r>
        <r>  0.0172  0.0066  0.0022  0.0059  0.0034  0.0058  0.0006  0.0100  0.0034 </r>
        <r>  0.0172  0.0066  0.0022  0.0059  0.0034  0.0058  0.0006  0.0100  0.0034 </r>
        <r>  0.0020  0.0533  0.0035  0.0071  0.0000  0.0000  0.0000  0.0000  0.0000 </r>
        <r>  0.0020  0.0533  0.0035  0.0071  0.0000  0.0000  0.0000  0.0000  0.0000 </r>
       </set>
      </set>
     </set>
    </set>
   </array>
  </projected>
 </calculation>
 <structure name="finalpos" >
  <crystal>
   <varray name="basis" >
    <v>       4.42077374      -0.00014454      -0.00004099 </v>
    <v>      -2.21051204       3.82842990       0.00004099 </v>
    <v>      -0.00007049       0.00004071       7.59411852 </v>
   </varray>
   <i name="volume">    128.52516193 </i>
   <varray name="rec_basis" >
    <v>       0.22620902       0.13061170       0.00000140 </v>
    <v>       0.00000854       0.26120862      -0.00000140 </v>
    <v>       0.00000122      -0.00000070       0.13168085 </v>
   </varray>
  </crystal>
  <varray name="positions" >
   <v>       0.00000000       0.00000000      -0.00000000 </v>
   <v>       0.66666275       0.33333726       0.36956276 </v>
   <v>       0.33333725       0.66666274       0.63043724 </v>
   <v>       0.66666464       0.33333535       0.73267001 </v>
   <v>       0.33333536       0.66666465       0.26732999 </v>
  </varray>
 </structure>
</modeling>
